 DBCSR| Multiplication driver                                               BLAS
 DBCSR| Multrec recursion limit                                              512
 DBCSR| Multiplication stack size                                           1000
 DBCSR| Maximum elements for images                                    UNLIMITED
 DBCSR| Multiplicative factor virtual images                                   1
 DBCSR| Multiplication size stacks                                             3
 DBCSR| Number of 3D layers                                               SINGLE
 DBCSR| Use MPI memory allocation                                              T
 DBCSR| Use RMA algorithm                                                      F
 DBCSR| Use Communication thread                                               T
 DBCSR| Communication thread load                                             87


  **** **** ******  **  PROGRAM STARTED AT               2018-11-13 10:08:16.976
 ***** ** ***  *** **   PROGRAM STARTED ON                                 sm153
 **    ****   ******    PROGRAM STARTED BY                                npopov
 ***** **    ** ** **   PROGRAM PROCESS ID                                  1013
  **** **  *******  **  PROGRAM STARTED IN          /home/npopov/nd/pstr/baf2_96

 CP2K| version string:                    CP2K version 7.0 (Development Version)
 CP2K| source code revision number:                                             
 CP2K| cp2kflags: libint fftw3 libxc parallel mpi2 scalapack libderiv_max_am1=5 
 CP2K|            libint_max_am=6 max_contr=4 mkl
 CP2K| is freely available from                            https://www.cp2k.org/
 CP2K| Program compiled at                          Tue Oct 23 14:28:01 +08 2018
 CP2K| Program compiled on                                                 sm101
 CP2K| Program compiled for                                                   np
 CP2K| Data directory path                      /home/npopov/progs/cp2k-git/data
 CP2K| Input file name                                                  calc.inp
 
 GLOBAL| Force Environment number                                              1
 GLOBAL| Basis set file name            /home/npopov/progs/cp2k-git/data/BASIS_A
 GLOBAL| Potential file name            /home/npopov/progs/cp2k-git/data/GTH_POT
 GLOBAL| MM Potential file name                                     MM_POTENTIAL
 GLOBAL| Coordinate file name                                      __STD_INPUT__
 GLOBAL| Method name                                                        CP2K
 GLOBAL| Project name                                                        bbi
 GLOBAL| Preferred FFT library                                             FFTW3
 GLOBAL| Preferred diagonalization lib.                                       SL
 GLOBAL| Run type                                                        GEO_OPT
 GLOBAL| All-to-all communication in single precision                          F
 GLOBAL| FFTs using library dependent lengths                                  F
 GLOBAL| Global print level                                               MEDIUM
 GLOBAL| MPI I/O enabled                                                       T
 GLOBAL| Total number of message passing processes                           288
 GLOBAL| Number of threads for this process                                    1
 GLOBAL| This output is from process                                           0
 GLOBAL| CPU model name :  Intel(R) Xeon(R) CPU E5-2695 v4 @ 2.10GHz

 MEMORY| system memory details [Kb]
 MEMORY|                        rank 0           min           max       average
 MEMORY| MemTotal            132053440     132053428     132053440     132053438
 MEMORY| MemFree             126371592     125293704     127113680     126280890
 MEMORY| Buffers                151488        147132        190696        158843
 MEMORY| Cached                1397040        672668       2434404       1456248
 MEMORY| Slab                  2370128       2293916       2499604       2354991
 MEMORY| SReclaimable           161792         87740        288016        153143
 MEMORY| MemLikelyFree       128081912     128028236     128081912     128049125


 *** Fundamental physical constants (SI units) ***

 *** Literature: B. J. Mohr and B. N. Taylor,
 ***             CODATA recommended values of the fundamental physical
 ***             constants: 2006, Web Version 5.1
 ***             http://physics.nist.gov/constants

 Speed of light in vacuum [m/s]                             2.99792458000000E+08
 Magnetic constant or permeability of vacuum [N/A**2]       1.25663706143592E-06
 Electric constant or permittivity of vacuum [F/m]          8.85418781762039E-12
 Planck constant (h) [J*s]                                  6.62606896000000E-34
 Planck constant (h-bar) [J*s]                              1.05457162825177E-34
 Elementary charge [C]                                      1.60217648700000E-19
 Electron mass [kg]                                         9.10938215000000E-31
 Electron g factor [ ]                                     -2.00231930436220E+00
 Proton mass [kg]                                           1.67262163700000E-27
 Fine-structure constant                                    7.29735253760000E-03
 Rydberg constant [1/m]                                     1.09737315685270E+07
 Avogadro constant [1/mol]                                  6.02214179000000E+23
 Boltzmann constant [J/K]                                   1.38065040000000E-23
 Atomic mass unit [kg]                                      1.66053878200000E-27
 Bohr radius [m]                                            5.29177208590000E-11

 *** Conversion factors ***

 [u] -> [a.u.]                                              1.82288848426455E+03
 [Angstrom] -> [Bohr] = [a.u.]                              1.88972613288564E+00
 [a.u.] = [Bohr] -> [Angstrom]                              5.29177208590000E-01
 [a.u.] -> [s]                                              2.41888432650478E-17
 [a.u.] -> [fs]                                             2.41888432650478E-02
 [a.u.] -> [J]                                              4.35974393937059E-18
 [a.u.] -> [N]                                              8.23872205491840E-08
 [a.u.] -> [K]                                              3.15774647902944E+05
 [a.u.] -> [kJ/mol]                                         2.62549961709828E+03
 [a.u.] -> [kcal/mol]                                       6.27509468713739E+02
 [a.u.] -> [Pa]                                             2.94210107994716E+13
 [a.u.] -> [bar]                                            2.94210107994716E+08
 [a.u.] -> [atm]                                            2.90362800883016E+08
 [a.u.] -> [eV]                                             2.72113838565563E+01
 [a.u.] -> [Hz]                                             6.57968392072181E+15
 [a.u.] -> [1/cm] (wave numbers)                            2.19474631370540E+05
 [a.u./Bohr**2] -> [1/cm]                                   5.14048714338585E+03
 

 CELL_TOP| Volume [angstrom^3]:                                         1984.303
 CELL_TOP| Vector a [angstrom    12.566     0.000     0.000    |a| =      12.566
 CELL_TOP| Vector b [angstrom     0.000    12.566     0.000    |b| =      12.566
 CELL_TOP| Vector c [angstrom     0.000     0.000    12.566    |c| =      12.566
 CELL_TOP| Angle (b,c), alpha [degree]:                                   90.000
 CELL_TOP| Angle (a,c), beta  [degree]:                                   90.000
 CELL_TOP| Angle (a,b), gamma [degree]:                                   90.000
 CELL_TOP| Numerically orthorhombic:                                         YES
 
 GENERATE|  Preliminary Number of Bonds generated:                             0
 GENERATE|  Achieved consistency in connectivity generation.

 CELL| Volume [angstrom^3]:                                             1984.303
 CELL| Vector a [angstrom]:      12.566     0.000     0.000    |a| =      12.566
 CELL| Vector b [angstrom]:       0.000    12.566     0.000    |b| =      12.566
 CELL| Vector c [angstrom]:       0.000     0.000    12.566    |c| =      12.566
 CELL| Angle (b,c), alpha [degree]:                                       90.000
 CELL| Angle (a,c), beta  [degree]:                                       90.000
 CELL| Angle (a,b), gamma [degree]:                                       90.000
 CELL| Numerically orthorhombic:                                             YES

 CELL_REF| Volume [angstrom^3]:                                         1984.303
 CELL_REF| Vector a [angstrom    12.566     0.000     0.000    |a| =      12.566
 CELL_REF| Vector b [angstrom     0.000    12.566     0.000    |b| =      12.566
 CELL_REF| Vector c [angstrom     0.000     0.000    12.566    |c| =      12.566
 CELL_REF| Angle (b,c), alpha [degree]:                                   90.000
 CELL_REF| Angle (a,c), beta  [degree]:                                   90.000
 CELL_REF| Angle (a,b), gamma [degree]:                                   90.000
 CELL_REF| Numerically orthorhombic:                                         YES

 *******************************************************************************
 *******************************************************************************
 **                                                                           **
 **     #####                         ##              ##                      **
 **    ##   ##            ##          ##              ##                      **
 **   ##     ##                       ##            ######                    **
 **   ##     ##  ##   ##  ##   #####  ##  ##   ####   ##    #####    #####    **
 **   ##     ##  ##   ##  ##  ##      ## ##   ##      ##   ##   ##  ##   ##   **
 **   ##  ## ##  ##   ##  ##  ##      ####     ###    ##   ######   ######    **
 **    ##  ###   ##   ##  ##  ##      ## ##      ##   ##   ##       ##        **
 **     #######   #####   ##   #####  ##  ##  ####    ##    #####   ##        **
 **           ##                                                    ##        **
 **                                                                           **
 **                                                ... make the atoms dance   **
 **                                                                           **
 **            Copyright (C) by CP2K developers group (2000 - 2018)           **
 **                                                                           **
 *******************************************************************************

 DFT| Spin restricted Kohn-Sham (RKS) calculation                            RKS
 DFT| Multiplicity                                                             1
 DFT| Number of spin states                                                    1
 DFT| Charge                                                                   0
 DFT| Self-interaction correction (SIC)                                       NO
 DFT| Cutoffs: density                                              1.000000E-10
 DFT|          gradient                                             1.000000E-10
 DFT|          tau                                                  1.000000E-10
 DFT|          cutoff_smoothing_range                               0.000000E+00
 DFT| XC density smoothing                                                  NONE
 DFT| XC derivatives                                                          PW
 FUNCTIONAL| ROUTINE=NEW
 FUNCTIONAL| PBE:
 FUNCTIONAL| J.P.Perdew, K.Burke, M.Ernzerhof, Phys. Rev. Letter, vol. 77, n 18,
 FUNCTIONAL|  pp. 3865-3868, (1996)sx=0.000sc=1.000{spin unpolarized}           
 FUNCTIONAL| XWPBE:
 FUNCTIONAL| Jochen Heyd and Gustavo E. Scuseria, J. Chem. Phys., 120, 7274 {LDA
 FUNCTIONAL|  version}                                                          

 QS| Method:                                                                 GPW
 QS| Density plane wave grid type                        NON-SPHERICAL FULLSPACE
 QS| Number of grid levels:                                                    5
 QS| Density cutoff [a.u.]:                                                325.0
 QS| Multi grid cutoff [a.u.]: 1) grid level                               325.0
 QS|                           2) grid level                               108.3
 QS|                           3) grid level                                36.1
 QS|                           4) grid level                                12.0
 QS|                           5) grid level                                 4.0
 QS| Grid level progression factor:                                          3.0
 QS| Relative density cutoff [a.u.]:                                        30.0
 QS| Consistent realspace mapping and integration 
 QS| Interaction thresholds: eps_pgf_orb:                                1.0E-40
 QS|                         eps_filter_matrix:                          1.0E-40
 QS|                         eps_core_charge:                            1.0E-42
 QS|                         eps_rho_gspace:                             1.0E-40
 QS|                         eps_rho_rspace:                             1.0E-40
 QS|                         eps_gvg_rspace:                             1.0E-20
 QS|                         eps_ppl:                                    1.0E-02
 QS|                         eps_ppnl:                                   1.0E-22


 ATOMIC KIND INFORMATION

  1. Atomic kind: Ba                                    Number of atoms:      32

     Orbital Basis Set                                    TZVP-MOLOPT-SR-GTH-q10

       Number of orbital shell sets:                                           1
       Number of orbital shells:                                               8
       Number of primitive Cartesian functions:                                6
       Number of Cartesian basis functions:                                   19
       Number of spherical basis functions:                                   18
       Norm type:                                                              2

       Normalised Cartesian orbitals:

                        Set   Shell   Orbital            Exponent    Coefficient

                          1       1    2s                1.099107       1.203910
                                                         1.042416      -2.281486
                                                         0.923816       0.603764
                                                         0.409515       0.721861
                                                         0.166001      -0.215201
                                                         0.038868       0.055199

                          1       2    3s                1.099107       0.188406
                                                         1.042416      -0.058781
                                                         0.923816      -0.071848
                                                         0.409515      -0.182307
                                                         0.166001       0.061747
                                                         0.038868       0.058950

                          1       3    4s                1.099107       0.286284
                                                         1.042416      -0.400298
                                                         0.923816       0.316080
                                                         0.409515      -0.349929
                                                         0.166001       0.034613
                                                         0.038868      -0.041385

                          1       4    5s                1.099107       0.103627
                                                         1.042416      -0.060610
                                                         0.923816      -0.042568
                                                         0.409515       0.121559
                                                         0.166001       0.148896
                                                         0.038868      -0.009763

                          1       5    3px               1.099107       0.037255
                                                         1.042416       2.080023
                                                         0.923816      -1.867058
                                                         0.409515      -0.283953
                                                         0.166001      -0.062025
                                                         0.038868       0.012622
                          1       5    3py               1.099107       0.037255
                                                         1.042416       2.080023
                                                         0.923816      -1.867058
                                                         0.409515      -0.283953
                                                         0.166001      -0.062025
                                                         0.038868       0.012622
                          1       5    3pz               1.099107       0.037255
                                                         1.042416       2.080023
                                                         0.923816      -1.867058
                                                         0.409515      -0.283953
                                                         0.166001      -0.062025
                                                         0.038868       0.012622

                          1       6    4px               1.099107       0.476978
                                                         1.042416      -0.471787
                                                         0.923816       0.087207
                                                         0.409515      -0.129822
                                                         0.166001       0.040162
                                                         0.038868       0.022355
                          1       6    4py               1.099107       0.476978
                                                         1.042416      -0.471787
                                                         0.923816       0.087207
                                                         0.409515      -0.129822
                                                         0.166001       0.040162
                                                         0.038868       0.022355
                          1       6    4pz               1.099107       0.476978
                                                         1.042416      -0.471787
                                                         0.923816       0.087207
                                                         0.409515      -0.129822
                                                         0.166001       0.040162
                                                         0.038868       0.022355

                          1       7    5px               1.099107       0.411489
                                                         1.042416      -0.798990
                                                         0.923816      -0.292007
                                                         0.409515       0.605919
                                                         0.166001      -0.301207
                                                         0.038868       0.017943
                          1       7    5py               1.099107       0.411489
                                                         1.042416      -0.798990
                                                         0.923816      -0.292007
                                                         0.409515       0.605919
                                                         0.166001      -0.301207
                                                         0.038868       0.017943
                          1       7    5pz               1.099107       0.411489
                                                         1.042416      -0.798990
                                                         0.923816      -0.292007
                                                         0.409515       0.605919
                                                         0.166001      -0.301207
                                                         0.038868       0.017943

                          1       8    4dx2              1.099107       2.668458
                                                         1.042416      -2.755323
                                                         0.923816       0.229608
                                                         0.409515      -0.114085
                                                         0.166001      -0.042847
                                                         0.038868      -0.001242
                          1       8    4dxy              1.099107       4.621905
                                                         1.042416      -4.772360
                                                         0.923816       0.397692
                                                         0.409515      -0.197601
                                                         0.166001      -0.074213
                                                         0.038868      -0.002151
                          1       8    4dxz              1.099107       4.621905
                                                         1.042416      -4.772360
                                                         0.923816       0.397692
                                                         0.409515      -0.197601
                                                         0.166001      -0.074213
                                                         0.038868      -0.002151
                          1       8    4dy2              1.099107       2.668458
                                                         1.042416      -2.755323
                                                         0.923816       0.229608
                                                         0.409515      -0.114085
                                                         0.166001      -0.042847
                                                         0.038868      -0.001242
                          1       8    4dyz              1.099107       4.621905
                                                         1.042416      -4.772360
                                                         0.923816       0.397692
                                                         0.409515      -0.197601
                                                         0.166001      -0.074213
                                                         0.038868      -0.002151
                          1       8    4dz2              1.099107       2.668458
                                                         1.042416      -2.755323
                                                         0.923816       0.229608
                                                         0.409515      -0.114085
                                                         0.166001      -0.042847
                                                         0.038868      -0.001242

     Auxiliary Fit Basis Set                                               FIT11

       Number of orbital shell sets:                                          11
       Number of orbital shells:                                              11
       Number of primitive Cartesian functions:                               11
       Number of Cartesian basis functions:                                   26
       Number of spherical basis functions:                                   25
       Norm type:                                                              2

       Normalised Cartesian orbitals:

                        Set   Shell   Orbital            Exponent    Coefficient

                          1       1    1s                0.038875       0.062397

                          2       1    1s                0.117061       0.142633

                          3       1    1s                0.380944       0.345586

                          4       1    1s                1.814537       1.114255

                          5       1    1s                3.207545       1.708204

                          6       1    1px               0.040361       0.025786
                          6       1    1py               0.040361       0.025786
                          6       1    1pz               0.040361       0.025786

                          7       1    1px               0.173794       0.159950
                          7       1    1py               0.173794       0.159950
                          7       1    1pz               0.173794       0.159950

                          8       1    1px               0.458123       0.537240
                          8       1    1py               0.458123       0.537240
                          8       1    1pz               0.458123       0.537240

                          9       1    1px               2.159859       3.732260
                          9       1    1py               2.159859       3.732260
                          9       1    1pz               2.159859       3.732260

                         10       1    1px               3.110732       5.888686
                         10       1    1py               3.110732       5.888686
                         10       1    1pz               3.110732       5.888686

                         11       1    1dx2              0.221258       0.117485
                         11       1    1dxy              0.221258       0.203490
                         11       1    1dxz              0.221258       0.203490
                         11       1    1dy2              0.221258       0.117485
                         11       1    1dyz              0.221258       0.203490
                         11       1    1dz2              0.221258       0.117485

     GTH Potential information for                                   GTH-PBE-q10

       Description:                       Goedecker-Teter-Hutter pseudopotential
                                           Goedecker et al., PRB 54, 1703 (1996)
                                          Hartwigsen et al., PRB 58, 3641 (1998)
                                                      Krack, TCA 114, 145 (2005)

       Gaussian exponent of the core charge distribution:               1.714678
       Electronic configuration (s p d ...):                               4   6

       Parameters of the local part of the GTH pseudopotential:

                          rloc        C1          C2          C3          C4
                        0.540000   24.526781   -2.468670

       Parameters of the non-local part of the GTH pseudopotential:

                   l      r(l)      h(i,j,l)

                   0    0.492068    0.095151    1.169318
                                    1.169318   -1.509584
                   1    0.391489    0.800183   -1.616839
                                   -1.616839    1.913070
                   2    0.672173    0.388531
                   3    0.300498  -19.653795

  2. Atomic kind: F                                     Number of atoms:      64

     Orbital Basis Set                                        TZVP-MOLOPT-GTH-q7

       Number of orbital shell sets:                                           1
       Number of orbital shells:                                               7
       Number of primitive Cartesian functions:                                7
       Number of Cartesian basis functions:                                   18
       Number of spherical basis functions:                                   17
       Norm type:                                                              2

       Normalised Cartesian orbitals:

                        Set   Shell   Orbital            Exponent    Coefficient

                          1       1    2s               15.025673      -0.376932
                                                         6.156801      -0.368898
                                                         2.411456       0.244971
                                                         0.963986       0.349414
                                                         0.396230       0.147372
                                                         0.157659       0.012715
                                                         0.048130       0.000145

                          1       2    3s               15.025673       0.933267
                                                         6.156801       0.616779
                                                         2.411456      -0.201529
                                                         0.963986      -0.882439
                                                         0.396230       0.144425
                                                         0.157659       0.219094
                                                         0.048130      -0.023206

                          1       3    4s               15.025673       3.296866
                                                         6.156801       1.836590
                                                         2.411456      -1.060145
                                                         0.963986       0.434370
                                                         0.396230       0.064205
                                                         0.157659      -0.178948
                                                         0.048130       0.051854

                          1       4    3px              15.025673       1.819113
                                                         6.156801       1.920740
                                                         2.411456       1.216350
                                                         0.963986       0.488224
                                                         0.396230       0.135049
                                                         0.157659       0.019710
                                                         0.048130       0.000282
                          1       4    3py              15.025673       1.819113
                                                         6.156801       1.920740
                                                         2.411456       1.216350
                                                         0.963986       0.488224
                                                         0.396230       0.135049
                                                         0.157659       0.019710
                                                         0.048130       0.000282
                          1       4    3pz              15.025673       1.819113
                                                         6.156801       1.920740
                                                         2.411456       1.216350
                                                         0.963986       0.488224
                                                         0.396230       0.135049
                                                         0.157659       0.019710
                                                         0.048130       0.000282

                          1       5    4px              15.025673      -1.689919
                                                         6.156801      -2.417008
                                                         2.411456      -0.953449
                                                         0.963986      -0.918345
                                                         0.396230       0.170867
                                                         0.157659       0.085113
                                                         0.048130       0.002429
                          1       5    4py              15.025673      -1.689919
                                                         6.156801      -2.417008
                                                         2.411456      -0.953449
                                                         0.963986      -0.918345
                                                         0.396230       0.170867
                                                         0.157659       0.085113
                                                         0.048130       0.002429
                          1       5    4pz              15.025673      -1.689919
                                                         6.156801      -2.417008
                                                         2.411456      -0.953449
                                                         0.963986      -0.918345
                                                         0.396230       0.170867
                                                         0.157659       0.085113
                                                         0.048130       0.002429

                          1       6    5px              15.025673      -1.726483
                                                         6.156801      -2.630165
                                                         2.411456      -0.995384
                                                         0.963986      -1.415061
                                                         0.396230       1.139067
                                                         0.157659      -0.281456
                                                         0.048130       0.022622
                          1       6    5py              15.025673      -1.726483
                                                         6.156801      -2.630165
                                                         2.411456      -0.995384
                                                         0.963986      -1.415061
                                                         0.396230       1.139067
                                                         0.157659      -0.281456
                                                         0.048130       0.022622
                          1       6    5pz              15.025673      -1.726483
                                                         6.156801      -2.630165
                                                         2.411456      -0.995384
                                                         0.963986      -1.415061
                                                         0.396230       1.139067
                                                         0.157659      -0.281456
                                                         0.048130       0.022622

                          1       7    4dx2             15.025673       0.944352
                                                         6.156801       1.881678
                                                         2.411456       0.905642
                                                         0.963986       0.990965
                                                         0.396230       0.093353
                                                         0.157659       0.005683
                                                         0.048130      -0.000057
                          1       7    4dxy             15.025673       1.635666
                                                         6.156801       3.259162
                                                         2.411456       1.568618
                                                         0.963986       1.716401
                                                         0.396230       0.161692
                                                         0.157659       0.009842
                                                         0.048130      -0.000100
                          1       7    4dxz             15.025673       1.635666
                                                         6.156801       3.259162
                                                         2.411456       1.568618
                                                         0.963986       1.716401
                                                         0.396230       0.161692
                                                         0.157659       0.009842
                                                         0.048130      -0.000100
                          1       7    4dy2             15.025673       0.944352
                                                         6.156801       1.881678
                                                         2.411456       0.905642
                                                         0.963986       0.990965
                                                         0.396230       0.093353
                                                         0.157659       0.005683
                                                         0.048130      -0.000057
                          1       7    4dyz             15.025673       1.635666
                                                         6.156801       3.259162
                                                         2.411456       1.568618
                                                         0.963986       1.716401
                                                         0.396230       0.161692
                                                         0.157659       0.009842
                                                         0.048130      -0.000100
                          1       7    4dz2             15.025673       0.944352
                                                         6.156801       1.881678
                                                         2.411456       0.905642
                                                         0.963986       0.990965
                                                         0.396230       0.093353
                                                         0.157659       0.005683
                                                         0.048130      -0.000057

     Auxiliary Fit Basis Set                                                FIT3

       Number of orbital shell sets:                                           6
       Number of orbital shells:                                               6
       Number of primitive Cartesian functions:                                6
       Number of Cartesian basis functions:                                   12
       Number of spherical basis functions:                                   12
       Norm type:                                                              2

       Normalised Cartesian orbitals:

                        Set   Shell   Orbital            Exponent    Coefficient

                          1       1    1s                0.347210       0.322370

                          2       1    1s                1.152050       0.792526

                          3       1    1s               11.048190       4.318953

                          4       1    1px               0.408010       0.464813
                          4       1    1py               0.408010       0.464813
                          4       1    1pz               0.408010       0.464813

                          5       1    1px               1.825830       3.025280
                          5       1    1py               1.825830       3.025280
                          5       1    1pz               1.825830       3.025280

                          6       1    1px               7.964730      19.072337
                          6       1    1py               7.964730      19.072337
                          6       1    1pz               7.964730      19.072337

     GTH Potential information for                                    GTH-PBE-q7

       Description:                       Goedecker-Teter-Hutter pseudopotential
                                           Goedecker et al., PRB 54, 1703 (1996)
                                          Hartwigsen et al., PRB 58, 3641 (1998)
                                                      Krack, TCA 114, 145 (2005)

       Gaussian exponent of the core charge distribution:              10.823746
       Electronic configuration (s p d ...):                               2   5

       Parameters of the local part of the GTH pseudopotential:

                          rloc        C1          C2          C3          C4
                        0.214930  -21.573028    3.199776

       Parameters of the non-local part of the GTH pseudopotential:

                   l      r(l)      h(i,j,l)

                   0    0.194684   23.743540
                   1    0.186156


 MOLECULE KIND INFORMATION


 All atoms are their own molecule, skipping detailed information


 TOTAL NUMBERS AND MAXIMUM NUMBERS

  Total number of            - Atomic kinds:                                   2
                             - Atoms:                                         96
                             - Shell sets:                                    96
                             - Shells:                                       704
                             - Primitive Cartesian functions:                640
                             - Cartesian basis functions:                   1760
                             - Spherical basis functions:                   1664

  Maximum angular momentum of- Orbital basis functions:                        2
                             - Local part of the GTH pseudopotential:          2
                             - Non-local part of the GTH pseudopotential:      3

  AUX_FIT ADMM-Basis: 
  Total number of            - Shell sets:                                   736
                             - Shells:                                       736
                             - Primitive Cartesian functions:                736
                             - Cartesian basis functions:                   1600
                             - Spherical basis functions:                   1568
                               Maximum angular momentum                        2


 MODULE QUICKSTEP:  ATOMIC COORDINATES IN angstrom

  Atom  Kind  Element       X           Y           Z          Z(eff)       Mass

       1     1 Ba  56    0.000000    0.000000    0.000000     10.00     137.3270
       2     1 Ba  56    6.283081    0.000000    0.000000     10.00     137.3270
       3     1 Ba  56    0.000000    6.283081    0.000000     10.00     137.3270
       4     1 Ba  56    6.283081    6.283081    0.000000     10.00     137.3270
       5     1 Ba  56    0.000000    0.000000    6.283081     10.00     137.3270
       6     1 Ba  56    6.283081    0.000000    6.283081     10.00     137.3270
       7     1 Ba  56    0.000000    6.283081    6.283081     10.00     137.3270
       8     1 Ba  56    6.283081    6.283081    6.283081     10.00     137.3270
       9     1 Ba  56    3.141541    3.141541    0.000000     10.00     137.3270
      10     1 Ba  56    9.424622    3.141541    0.000000     10.00     137.3270
      11     1 Ba  56    3.141541    9.424622    0.000000     10.00     137.3270
      12     1 Ba  56    9.424622    9.424622    0.000000     10.00     137.3270
      13     1 Ba  56    3.141541    3.141541    6.283081     10.00     137.3270
      14     1 Ba  56    9.424622    3.141541    6.283081     10.00     137.3270
      15     1 Ba  56    3.141541    9.424622    6.283081     10.00     137.3270
      16     1 Ba  56    9.424622    9.424622    6.283081     10.00     137.3270
      17     1 Ba  56    3.141541    0.000000    3.141541     10.00     137.3270
      18     1 Ba  56    9.424622    0.000000    3.141541     10.00     137.3270
      19     1 Ba  56    3.141541    6.283081    3.141541     10.00     137.3270
      20     1 Ba  56    9.424622    6.283081    3.141541     10.00     137.3270
      21     1 Ba  56    3.141541    0.000000    9.424622     10.00     137.3270
      22     1 Ba  56    9.424622    0.000000    9.424622     10.00     137.3270
      23     1 Ba  56    3.141541    6.283081    9.424622     10.00     137.3270
      24     1 Ba  56    9.424622    6.283081    9.424622     10.00     137.3270
      25     1 Ba  56    0.000000    3.141541    3.141541     10.00     137.3270
      26     1 Ba  56    6.283081    3.141541    3.141541     10.00     137.3270
      27     1 Ba  56    0.000000    9.424622    3.141541     10.00     137.3270
      28     1 Ba  56    6.283081    9.424622    3.141541     10.00     137.3270
      29     1 Ba  56    0.000000    3.141541    9.424622     10.00     137.3270
      30     1 Ba  56    6.283081    3.141541    9.424622     10.00     137.3270
      31     1 Ba  56    0.000000    9.424622    9.424622     10.00     137.3270
      32     1 Ba  56    6.283081    9.424622    9.424622     10.00     137.3270
      33     2 F    9    1.570770    1.570770    1.570770      7.00      18.9984
      34     2 F    9    7.853851    1.570770    1.570770      7.00      18.9984
      35     2 F    9    1.570770    7.853851    1.570770      7.00      18.9984
      36     2 F    9    7.853851    7.853851    1.570770      7.00      18.9984
      37     2 F    9    1.570770    1.570770    7.853851      7.00      18.9984
      38     2 F    9    7.853851    1.570770    7.853851      7.00      18.9984
      39     2 F    9    1.570770    7.853851    7.853851      7.00      18.9984
      40     2 F    9    7.853851    7.853851    7.853851      7.00      18.9984
      41     2 F    9    4.712311    4.712311    4.712311      7.00      18.9984
      42     2 F    9   10.995392    4.712311    4.712311      7.00      18.9984
      43     2 F    9    4.712311   10.995392    4.712311      7.00      18.9984
      44     2 F    9   10.995392   10.995392    4.712311      7.00      18.9984
      45     2 F    9    4.712311    4.712311   10.995392      7.00      18.9984
      46     2 F    9   10.995392    4.712311   10.995392      7.00      18.9984
      47     2 F    9    4.712311   10.995392   10.995392      7.00      18.9984
      48     2 F    9   10.995392   10.995392   10.995392      7.00      18.9984
      49     2 F    9    1.570770    1.570770    4.712311      7.00      18.9984
      50     2 F    9    7.853851    1.570770    4.712311      7.00      18.9984
      51     2 F    9    1.570770    7.853851    4.712311      7.00      18.9984
      52     2 F    9    7.853851    7.853851    4.712311      7.00      18.9984
      53     2 F    9    1.570770    1.570770   10.995392      7.00      18.9984
      54     2 F    9    7.853851    1.570770   10.995392      7.00      18.9984
      55     2 F    9    1.570770    7.853851   10.995392      7.00      18.9984
      56     2 F    9    7.853851    7.853851   10.995392      7.00      18.9984
      57     2 F    9    4.712311    4.712311    1.570770      7.00      18.9984
      58     2 F    9   10.995392    4.712311    1.570770      7.00      18.9984
      59     2 F    9    4.712311   10.995392    1.570770      7.00      18.9984
      60     2 F    9   10.995392   10.995392    1.570770      7.00      18.9984
      61     2 F    9    4.712311    4.712311    7.853851      7.00      18.9984
      62     2 F    9   10.995392    4.712311    7.853851      7.00      18.9984
      63     2 F    9    4.712311   10.995392    7.853851      7.00      18.9984
      64     2 F    9   10.995392   10.995392    7.853851      7.00      18.9984
      65     2 F    9    4.712311    1.570770    4.712311      7.00      18.9984
      66     2 F    9   10.995392    1.570770    4.712311      7.00      18.9984
      67     2 F    9    4.712311    7.853851    4.712311      7.00      18.9984
      68     2 F    9   10.995392    7.853851    4.712311      7.00      18.9984
      69     2 F    9    4.712311    1.570770   10.995392      7.00      18.9984
      70     2 F    9   10.995392    1.570770   10.995392      7.00      18.9984
      71     2 F    9    4.712311    7.853851   10.995392      7.00      18.9984
      72     2 F    9   10.995392    7.853851   10.995392      7.00      18.9984
      73     2 F    9    1.570770    4.712311    1.570770      7.00      18.9984
      74     2 F    9    7.853851    4.712311    1.570770      7.00      18.9984
      75     2 F    9    1.570770   10.995392    1.570770      7.00      18.9984
      76     2 F    9    7.853851   10.995392    1.570770      7.00      18.9984
      77     2 F    9    1.570770    4.712311    7.853851      7.00      18.9984
      78     2 F    9    7.853851    4.712311    7.853851      7.00      18.9984
      79     2 F    9    1.570770   10.995392    7.853851      7.00      18.9984
      80     2 F    9    7.853851   10.995392    7.853851      7.00      18.9984
      81     2 F    9    4.712311    1.570770    1.570770      7.00      18.9984
      82     2 F    9   10.995392    1.570770    1.570770      7.00      18.9984
      83     2 F    9    4.712311    7.853851    1.570770      7.00      18.9984
      84     2 F    9   10.995392    7.853851    1.570770      7.00      18.9984
      85     2 F    9    4.712311    1.570770    7.853851      7.00      18.9984
      86     2 F    9   10.995392    1.570770    7.853851      7.00      18.9984
      87     2 F    9    4.712311    7.853851    7.853851      7.00      18.9984
      88     2 F    9   10.995392    7.853851    7.853851      7.00      18.9984
      89     2 F    9    1.570770    4.712311    4.712311      7.00      18.9984
      90     2 F    9    7.853851    4.712311    4.712311      7.00      18.9984
      91     2 F    9    1.570770   10.995392    4.712311      7.00      18.9984
      92     2 F    9    7.853851   10.995392    4.712311      7.00      18.9984
      93     2 F    9    1.570770    4.712311   10.995392      7.00      18.9984
      94     2 F    9    7.853851    4.712311   10.995392      7.00      18.9984
      95     2 F    9    1.570770   10.995392   10.995392      7.00      18.9984
      96     2 F    9    7.853851   10.995392   10.995392      7.00      18.9984




 SCF PARAMETERS         Density guess:                                    ATOMIC
                        --------------------------------------------------------
                        max_scf:                                             500
                        max_scf_history:                                       0
                        max_diis:                                              4
                        --------------------------------------------------------
                        eps_scf:                                        1.00E-05
                        eps_scf_history:                                0.00E+00
                        eps_diis:                                       1.00E-01
                        eps_eigval:                                     1.00E-05
                        --------------------------------------------------------
                        level_shift [a.u.]:                                 0.00
                        --------------------------------------------------------
                        No outer SCF

 PW_GRID| Information for grid number                                          1
 PW_GRID| Grid distributed over                                   288 processors
 PW_GRID| Real space group dimensions                                    12   24
 PW_GRID| the grid is blocked:                                               YES
 PW_GRID| Cutoff [a.u.]                                                    325.0
 PW_GRID| spherical cutoff:                                                   NO
 PW_GRID|   Bounds   1           -100      99                Points:         200
 PW_GRID|   Bounds   2           -100      99                Points:         200
 PW_GRID|   Bounds   3           -100      99                Points:         200
 PW_GRID| Volume element (a.u.^3)  0.1674E-02     Volume (a.u.^3)     13390.7401
 PW_GRID| Grid span                                                    FULLSPACE
 PW_GRID|   Distribution                         Average         Max         Min
 PW_GRID|   G-Vectors                            27777.8       30600       25600
 PW_GRID|   G-Rays                                 138.9         153         128
 PW_GRID|   Real Space Points                    27777.8       30600       25600

 PW_GRID| Information for grid number                                          2
 PW_GRID| Grid distributed over                                   288 processors
 PW_GRID| Real space group dimensions                                    12   24
 PW_GRID| the grid is blocked:                                                NO
 PW_GRID| Cutoff [a.u.]                                                    108.3
 PW_GRID| spherical cutoff:                                                   NO
 PW_GRID|   Bounds   1            -60      59                Points:         120
 PW_GRID|   Bounds   2            -60      59                Points:         120
 PW_GRID|   Bounds   3            -60      59                Points:         120
 PW_GRID| Volume element (a.u.^3)  0.7749E-02     Volume (a.u.^3)     13390.7401
 PW_GRID| Grid span                                                    FULLSPACE
 PW_GRID|   Distribution                         Average         Max         Min
 PW_GRID|   G-Vectors                             6000.0       18360           0
 PW_GRID|   G-Rays                                  50.0         153           0
 PW_GRID|   Real Space Points                     6000.0        6000        6000

 PW_GRID| Information for grid number                                          3
 PW_GRID| Grid distributed over                                   288 processors
 PW_GRID| Real space group dimensions                                    12   24
 PW_GRID| the grid is blocked:                                                NO
 PW_GRID| Cutoff [a.u.]                                                     36.1
 PW_GRID| spherical cutoff:                                                   NO
 PW_GRID|   Bounds   1            -36      35                Points:          72
 PW_GRID|   Bounds   2            -36      35                Points:          72
 PW_GRID|   Bounds   3            -36      35                Points:          72
 PW_GRID| Volume element (a.u.^3)  0.3588E-01     Volume (a.u.^3)     13390.7401
 PW_GRID| Grid span                                                    FULLSPACE
 PW_GRID|   Distribution                         Average         Max         Min
 PW_GRID|   G-Vectors                             1296.0       11016           0
 PW_GRID|   G-Rays                                  18.0         153           0
 PW_GRID|   Real Space Points                     1296.0        1296        1296

 PW_GRID| Information for grid number                                          4
 PW_GRID| Grid distributed over                                   288 processors
 PW_GRID| Real space group dimensions                                    12   24
 PW_GRID| the grid is blocked:                                                NO
 PW_GRID| Cutoff [a.u.]                                                     12.0
 PW_GRID| spherical cutoff:                                                   NO
 PW_GRID|   Bounds   1            -20      19                Points:          40
 PW_GRID|   Bounds   2            -20      19                Points:          40
 PW_GRID|   Bounds   3            -20      19                Points:          40
 PW_GRID| Volume element (a.u.^3)  0.2092         Volume (a.u.^3)     13390.7401
 PW_GRID| Grid span                                                    FULLSPACE
 PW_GRID|   Distribution                         Average         Max         Min
 PW_GRID|   G-Vectors                              222.2        6120           0
 PW_GRID|   G-Rays                                   5.6         153           0
 PW_GRID|   Real Space Points                      222.2         320         120

 PW_GRID| Information for grid number                                          5
 PW_GRID| Grid distributed over                                   288 processors
 PW_GRID| Real space group dimensions                                    12   24
 PW_GRID| the grid is blocked:                                                NO
 PW_GRID| Cutoff [a.u.]                                                      4.0
 PW_GRID| spherical cutoff:                                                   NO
 PW_GRID|   Bounds   1            -12      11                Points:          24
 PW_GRID|   Bounds   2            -12      11                Points:          24
 PW_GRID|   Bounds   3            -12      11                Points:          24
 PW_GRID| Volume element (a.u.^3)  0.9687         Volume (a.u.^3)     13390.7401
 PW_GRID| Grid span                                                    FULLSPACE
 PW_GRID|   Distribution                         Average         Max         Min
 PW_GRID|   G-Vectors                               48.0        2304           0
 PW_GRID|   G-Rays                                   2.0          96           0
 PW_GRID|   Real Space Points                       48.0          48          48

 POISSON| Solver                                                        PERIODIC
 POISSON| Periodicity                                                        XYZ

 RS_GRID| Information for grid number                                          1
 RS_GRID|   Bounds   1           -100      99                Points:         200
 RS_GRID|   Bounds   2           -100      99                Points:         200
 RS_GRID|   Bounds   3           -100      99                Points:         200
 RS_GRID| Real space fully replicated
 RS_GRID| Group size                                                           1

 RS_GRID| Information for grid number                                          2
 RS_GRID|   Bounds   1            -60      59                Points:         120
 RS_GRID|   Bounds   2            -60      59                Points:         120
 RS_GRID|   Bounds   3            -60      59                Points:         120
 RS_GRID| Real space fully replicated
 RS_GRID| Group size                                                           1

 RS_GRID| Information for grid number                                          3
 RS_GRID|   Bounds   1            -36      35                Points:          72
 RS_GRID|   Bounds   2            -36      35                Points:          72
 RS_GRID|   Bounds   3            -36      35                Points:          72
 RS_GRID| Real space fully replicated
 RS_GRID| Group size                                                           1

 RS_GRID| Information for grid number                                          4
 RS_GRID|   Bounds   1            -20      19                Points:          40
 RS_GRID|   Bounds   2            -20      19                Points:          40
 RS_GRID|   Bounds   3            -20      19                Points:          40
 RS_GRID| Real space fully replicated
 RS_GRID| Group size                                                           1

 RS_GRID| Information for grid number                                          5
 RS_GRID|   Bounds   1            -12      11                Points:          24
 RS_GRID|   Bounds   2            -12      11                Points:          24
 RS_GRID|   Bounds   3            -12      11                Points:          24
 RS_GRID| Real space fully replicated
 RS_GRID| Group size                                                           1

 *** WARNING in hfx_types.F:1343 :: Periodic Hartree Fock calculation      ***
 *** requested with use of a truncated or shortrange potential. The cutoff ***
 *** radius is larger than half the minimal cell dimension. This may lead  ***
 *** to unphysical total energies. Reduce the cutoff radius in order to    ***
 *** avoid possible problems.                                              ***


  HFX_INFO| Replica ID:                                                        1
  HFX_INFO| EPS_SCHWARZ:                                                 1.0E-06
  HFX_INFO| EPS_SCHWARZ_FORCES                                           1.0E-06
  HFX_INFO| EPS_STORAGE_SCALING:                                         1.0E-01
  HFX_INFO| NBINS:                                                            64
  HFX_INFO| BLOCK_SIZE:                                                        1
  HFX_INFO| FRACTION:                                               0.3600000000
  HFX_INFO| Interaction Potential:                                    SHORTRANGE
  HFX_INFO| Omega:                                                  0.1100000000
  HFX_INFO| Cutoff Radius [angstrom]:                              14.2786927855
  HFX_INFO| NUMBER_OF_SHELLS:                                               AUTO
  HFX_INFO| Number of periodic shells considered:                             -1
  HFX_INFO| Number of periodic cells considered:                             179


 *******************************************************************************
 ***                     STARTING GEOMETRY OPTIMIZATION                      ***
 ***                                 L-BFGS                                  ***
 *******************************************************************************

 --------------------------
 OPTIMIZATION STEP:      1
 --------------------------

 Number of electrons:                                                        768
 Number of occupied orbitals:                                                384
 Number of molecular orbitals:                                               384

 Number of orbital functions:                                               1664
 Number of independent orbital functions:                                   1664

 Extrapolation method: initial_guess

 Atomic guess: The first density matrix is obtained in terms of atomic orbitals
               and electronic configurations assigned to each atomic kind

 Guess for atomic kind: Ba

 Electronic structure
    Total number of core electrons                                         46.00
    Total number of valence electrons                                      10.00
    Total number of electrons                                              56.00
    Multiplicity                                                   not specified
    S   [  2.00  2.00  2.00  2.00] 2.00  2.00
    P   [  6.00  6.00  6.00] 6.00
    D   [ 10.00 10.00]
 

 *******************************************************************************
                  Iteration          Convergence                     Energy [au]
 *******************************************************************************
                          1        0.636356                     -25.006760743711
                          2        0.304953                     -25.161576326978
                          3        0.135856E-01                 -25.197570936526
                          4        0.481209E-03                 -25.197625837853
                          5        0.189199E-05                 -25.197625916862
                          6        0.943382E-06                 -25.197625916863

 Energy components [Hartree]           Total Energy ::          -25.197625916863
                                        Band Energy ::           -6.555808463736
                                     Kinetic Energy ::            6.406006308340
                                   Potential Energy ::          -31.603632225203
                                      Virial (-V/T) ::            4.933437574680
                                        Core Energy ::          -41.433534590672
                                          XC Energy ::           -3.471596304366
                                     Coulomb Energy ::           19.707504978175
                       Total Pseudopotential Energy ::          -47.977371912534
                       Local Pseudopotential Energy ::          -47.948948391110
                    Nonlocal Pseudopotential Energy ::           -0.028423521424
                                        Confinement ::            1.378310135220

 Orbital energies  State     L     Occupation   Energy[a.u.]          Energy[eV]

                       1     0          2.000      -1.213629          -33.024512
                       2     0          2.000      -0.073102           -1.989215
 
                       1     1          6.000      -0.663724          -18.060861
 

 Total Electron Density at R=0:                                         0.001867

 Guess for atomic kind: F

 Electronic structure
    Total number of core electrons                                          2.00
    Total number of valence electrons                                       7.00
    Total number of electrons                                               9.00
    Multiplicity                                                   not specified
    S   [  2.00] 2.00
    P      5.00
 

 *******************************************************************************
                  Iteration          Convergence                     Energy [au]
 *******************************************************************************
                          1         1.36228                     -23.756417786041
                          2         1.17483                     -23.758320867570
                          3        0.143116E-01                 -23.940433128607
                          4        0.308779E-02                 -23.940468283265
                          5        0.629366E-04                 -23.940469354150
                          6        0.829643E-06                 -23.940469354584

 Energy components [Hartree]           Total Energy ::          -23.940469354584
                                        Band Energy ::           -4.160718715824
                                     Kinetic Energy ::           18.776289176523
                                   Potential Energy ::          -42.716758531106
                                      Virial (-V/T) ::            2.275037315921
                                        Core Energy ::          -40.723111836321
                                          XC Energy ::           -4.361796930396
                                     Coulomb Energy ::           21.144439412134
                       Total Pseudopotential Energy ::          -59.533761230876
                       Local Pseudopotential Energy ::          -61.231556866801
                    Nonlocal Pseudopotential Energy ::            1.697795635925
                                        Confinement ::            0.343602180319

 Orbital energies  State     L     Occupation   Energy[a.u.]          Energy[eV]

                       1     0          2.000      -1.086043          -29.552730
 
                       1     1          5.000      -0.397727          -10.822691
 

 Total Electron Density at R=0:                                         0.000111
 Re-scaling the density matrix to get the right number of electrons
                  # Electrons              Trace(P)               Scaling factor
                          768               768.009                        1.000


 SCF WAVEFUNCTION OPTIMIZATION

  ----------------------------------- OT ---------------------------------------
  Minimizer      : CG                  : conjugate gradient
  Preconditioner : FULL_KINETIC        : inversion of T + eS
  Precond_solver : DEFAULT
  Line search    : 2PNT                : 2 energies, one gradient
  stepsize       :    0.15000000                  energy_gap     :    0.20000000
  eps_taylor     :   0.10000E-15                  max_taylor     :             4
  ----------------------------------- OT ---------------------------------------

  Step     Update method      Time    Convergence         Total energy    Change
  ------------------------------------------------------------------------------

  HFX_MEM_INFO| Est. max. program size before HFX [MiB]:                     361
  HFX_MEM_INFO| Number of cart. primitive ERI's calculated:        1562312973879
  HFX_MEM_INFO| Number of sph. ERI's calculated:                     47783081162
  HFX_MEM_INFO| Number of sph. ERI's stored in-core:                 47783081162
  HFX_MEM_INFO| Number of sph. ERI's stored on disk:                           0
  HFX_MEM_INFO| Number of sph. ERI's calculated on the fly:                    0
  HFX_MEM_INFO| Total memory consumption ERI's RAM [MiB]:                  59853
  HFX_MEM_INFO| Whereof max-vals [MiB]:                                     1399
  HFX_MEM_INFO| Total compression factor ERI's RAM:                         6.09
  HFX_MEM_INFO| Total memory consumption ERI's disk [MiB]:                     0
  HFX_MEM_INFO| Total compression factor ERI's disk:                        0.00
  HFX_MEM_INFO| Size of density/Fock matrix [MiB]:                            18
  HFX_MEM_INFO| Size of buffers [MiB]:                                         3
  HFX_MEM_INFO| Number of periodic image cells considered:                   179
  HFX_MEM_INFO| Est. max. program size after HFX  [MiB]:                     596

     1 OT CG       0.15E+00  384.1     0.01054339     -2379.3472257480 -2.38E+03
     2 OT LS       0.28E+00   23.6                    -2387.1453416071
     3 OT CG       0.28E+00   39.9     0.00995203     -2388.7567298143 -9.41E+00
     4 OT LS       0.19E+00   23.6                    -2392.9957454584
     5 OT CG       0.19E+00   39.7     0.00807559     -2394.2307465837 -5.47E+00
     6 OT LS       0.26E+00   23.7                    -2399.2352394001
     7 OT CG       0.26E+00   39.8     0.00581906     -2399.5830465686 -5.35E+00
     8 OT LS       0.28E+00   23.7                    -2402.5806950968
     9 OT CG       0.28E+00   39.9     0.00543512     -2402.5945564544 -3.01E+00
    10 OT LS       0.29E+00   23.6                    -2405.2627151231
    11 OT CG       0.29E+00   39.7     0.00465888     -2405.2612310873 -2.67E+00
    12 OT LS       0.30E+00   23.8                    -2407.2624519160
    13 OT CG       0.30E+00   38.9     0.00389120     -2407.2631866749 -2.00E+00
    14 OT LS       0.29E+00   23.7                    -2408.6471602340
    15 OT CG       0.29E+00   39.8     0.00360136     -2408.6479212796 -1.38E+00
    16 OT LS       0.27E+00   23.7                    -2409.7598821224
    17 OT CG       0.27E+00   39.8     0.00312964     -2409.7660241524 -1.12E+00
    18 OT LS       0.26E+00   23.8                    -2410.5630935571
    19 OT CG       0.26E+00   39.8     0.00248253     -2410.5659138480 -8.00E-01
    20 OT LS       0.28E+00   23.7                    -2411.1081927367
    21 OT CG       0.28E+00   39.6     0.00220807     -2411.1111011864 -5.45E-01
    22 OT LS       0.29E+00   23.6                    -2411.5651742584
    23 OT CG       0.29E+00   39.7     0.00197288     -2411.5660767328 -4.55E-01
    24 OT LS       0.28E+00   23.8                    -2411.9096358928
    25 OT CG       0.28E+00   39.8     0.00178616     -2411.9109927686 -3.45E-01
    26 OT LS       0.28E+00   23.6                    -2412.1968402322
    27 OT CG       0.28E+00   39.8     0.00164176     -2412.1967898358 -2.86E-01
    28 OT LS       0.26E+00   23.7                    -2412.4126178182
    29 OT CG       0.26E+00   40.0     0.00134521     -2412.4153531551 -2.19E-01
    30 OT LS       0.29E+00   23.8                    -2412.5812750576
    31 OT CG       0.29E+00   39.8     0.00124364     -2412.5837775477 -1.68E-01
    32 OT LS       0.26E+00   23.7                    -2412.7077735398
    33 OT CG       0.26E+00   39.7     0.00100804     -2412.7103460561 -1.27E-01
    34 OT LS       0.26E+00   23.7                    -2412.7952210283
    35 OT CG       0.26E+00   39.8     0.00080214     -2412.7952445762 -8.49E-02
    36 OT LS       0.27E+00   23.7                    -2412.8497052169
    37 OT CG       0.27E+00   39.9     0.00068382     -2412.8497134643 -5.45E-02
    38 OT LS       0.26E+00   23.7                    -2412.8892747157
    39 OT CG       0.26E+00   39.8     0.00056168     -2412.8892747310 -3.96E-02
    40 OT LS       0.25E+00   23.8                    -2412.9146982930
    41 OT CG       0.25E+00   39.6     0.00043304     -2412.9147559413 -2.55E-02
    42 OT LS       0.28E+00   23.6                    -2412.9312818470
    43 OT CG       0.28E+00   39.6     0.00037424     -2412.9314200910 -1.67E-02
    44 OT LS       0.25E+00   23.7                    -2412.9425319086
    45 OT CG       0.25E+00   39.9     0.00029743     -2412.9426609655 -1.12E-02
    46 OT LS       0.27E+00   23.8                    -2412.9503641339
    47 OT CG       0.27E+00   39.6     0.00024895     -2412.9504197428 -7.76E-03
    48 OT LS       0.27E+00   23.8                    -2412.9556905992
    49 OT CG       0.27E+00   39.6     0.00020633     -2412.9556954818 -5.28E-03
    50 OT LS       0.26E+00   23.8                    -2412.9591608924
    51 OT CG       0.26E+00   39.8     0.00017142     -2412.9591675573 -3.47E-03
    52 OT LS       0.29E+00   23.7                    -2412.9618627289
    53 OT CG       0.29E+00   39.7     0.00015117     -2412.9619049812 -2.74E-03
    54 OT LS       0.27E+00   23.7                    -2412.9638696096
    55 OT CG       0.27E+00   40.0     0.00012864     -2412.9638813992 -1.98E-03
    56 OT LS       0.26E+00   23.8                    -2412.9652583358
    57 OT CG       0.26E+00   39.6     0.00010835     -2412.9652603393 -1.38E-03
    58 OT LS       0.29E+00   23.7                    -2412.9663379322
    59 OT CG       0.29E+00   39.8     0.00009579     -2412.9663491323 -1.09E-03
    60 OT LS       0.28E+00   23.8                    -2412.9671612652
    61 OT CG       0.28E+00   39.5     0.00008358     -2412.9671629261 -8.14E-04
    62 OT LS       0.27E+00   23.7                    -2412.9677657717
    63 OT CG       0.27E+00   39.9     0.00007220     -2412.9677662229 -6.03E-04
    64 OT LS       0.29E+00   23.9                    -2412.9682533753
    65 OT CG       0.29E+00   39.7     0.00006632     -2412.9682566723 -4.90E-04
    66 OT LS       0.30E+00   23.8                    -2412.9686718784
    67 OT CG       0.30E+00   39.7     0.00006236     -2412.9686718827 -4.15E-04
    68 OT LS       0.30E+00   23.8                    -2412.9690415792
    69 OT CG       0.30E+00   39.8     0.00005819     -2412.9690415995 -3.70E-04
    70 OT LS       0.30E+00   23.7                    -2412.9693708308
    71 OT CG       0.30E+00   40.1     0.00005575     -2412.9693710037 -3.29E-04
    72 OT LS       0.30E+00   23.7                    -2412.9696718778
    73 OT CG       0.30E+00   39.7     0.00005429     -2412.9696718855 -3.01E-04
    74 OT LS       0.32E+00   23.9                    -2412.9699726095
    75 OT CG       0.32E+00   39.7     0.00005347     -2412.9699734846 -3.02E-04
    76 OT LS       0.30E+00   23.8                    -2412.9702488789
    77 OT CG       0.30E+00   39.8     0.00005056     -2412.9702498277 -2.76E-04
    78 OT LS       0.30E+00   23.8                    -2412.9704945555
    79 OT CG       0.30E+00   40.0     0.00004833     -2412.9704945770 -2.45E-04
    80 OT LS       0.31E+00   23.7                    -2412.9707274970
    81 OT CG       0.31E+00   39.6     0.00004645     -2412.9707279098 -2.33E-04
    82 OT LS       0.29E+00   23.6                    -2412.9709297787
    83 OT CG       0.29E+00   40.1     0.00004317     -2412.9709306035 -2.03E-04
    84 OT LS       0.29E+00   23.8                    -2412.9711045191
    85 OT CG       0.29E+00   39.8     0.00003948     -2412.9711045277 -1.74E-04
    86 OT LS       0.30E+00   23.8                    -2412.9712538148
    87 OT CG       0.30E+00   39.9     0.00003659     -2412.9712539258 -1.49E-04
    88 OT LS       0.29E+00   23.7                    -2412.9713765415
    89 OT CG       0.29E+00   39.7     0.00003387     -2412.9713767906 -1.23E-04
    90 OT LS       0.29E+00   23.7                    -2412.9714839117
    91 OT CG       0.29E+00   39.8     0.00003077     -2412.9714839487 -1.07E-04
    92 OT LS       0.30E+00   23.7                    -2412.9715744821
    93 OT CG       0.30E+00   39.7     0.00002847     -2412.9715745276 -9.06E-05
    94 OT LS       0.29E+00   23.8                    -2412.9716494000
    95 OT CG       0.29E+00   39.8     0.00002635     -2412.9716494852 -7.50E-05
    96 OT LS       0.29E+00   23.7                    -2412.9717142119
    97 OT CG       0.29E+00   40.0     0.00002408     -2412.9717142170 -6.47E-05
    98 OT LS       0.30E+00   23.6                    -2412.9717694174
    99 OT CG       0.30E+00   39.8     0.00002255     -2412.9717694401 -5.52E-05
   100 OT LS       0.31E+00   23.8                    -2412.9718191140
   101 OT CG       0.31E+00   39.5     0.00002168     -2412.9718191484 -4.97E-05
   102 OT LS       0.30E+00   23.8                    -2412.9718649869
   103 OT CG       0.30E+00   39.8     0.00002103     -2412.9718649872 -4.58E-05
   104 OT LS       0.32E+00   23.8                    -2412.9719098134
   105 OT CG       0.32E+00   39.8     0.00002103     -2412.9719098856 -4.49E-05
   106 OT LS       0.32E+00   23.8                    -2412.9719552814
   107 OT CG       0.32E+00   39.5     0.00002125     -2412.9719552887 -4.54E-05
   108 OT LS       0.32E+00   23.8                    -2412.9720017343
   109 OT CG       0.32E+00   39.8     0.00002128     -2412.9720017344 -4.64E-05
   110 OT LS       0.32E+00   22.9                    -2412.9720485333
   111 OT CG       0.32E+00   39.6     0.00002174     -2412.9720485352 -4.68E-05
   112 OT LS       0.32E+00   23.7                    -2412.9720974106
   113 OT CG       0.32E+00   39.8     0.00002250     -2412.9720974106 -4.89E-05
   114 OT LS       0.33E+00   23.7                    -2412.9721503977
   115 OT CG       0.33E+00   39.6     0.00002254     -2412.9721504087 -5.30E-05
   116 OT LS       0.32E+00   23.8                    -2412.9722029053
   117 OT CG       0.32E+00   39.7     0.00002277     -2412.9722029116 -5.25E-05
   118 OT LS       0.31E+00   23.8                    -2412.9722538659
   119 OT CG       0.31E+00   39.7     0.00002241     -2412.9722539811 -5.11E-05
   120 OT LS       0.32E+00   23.8                    -2412.9723047752
   121 OT CG       0.32E+00   39.8     0.00002180     -2412.9723048158 -5.08E-05
   122 OT LS       0.31E+00   23.8                    -2412.9723520247
   123 OT CG       0.31E+00   39.7     0.00002090     -2412.9723520401 -4.72E-05
   124 OT LS       0.29E+00   23.7                    -2412.9723917011
   125 OT CG       0.29E+00   39.8     0.00001943     -2412.9723919833 -3.99E-05
   126 OT LS       0.31E+00   23.7                    -2412.9724288420
   127 OT CG       0.31E+00   39.8     0.00001833     -2412.9724289935 -3.70E-05
   128 OT LS       0.30E+00   23.7                    -2412.9724608063
   129 OT CG       0.30E+00   39.6     0.00001712     -2412.9724608263 -3.18E-05
   130 OT LS       0.29E+00   23.7                    -2412.9724882475
   131 OT CG       0.29E+00   39.8     0.00001593     -2412.9724882578 -2.74E-05
   132 OT LS       0.30E+00   23.8                    -2412.9725123362
   133 OT CG       0.30E+00   39.7     0.00001489     -2412.9725123447 -2.41E-05
   134 OT LS       0.31E+00   23.7                    -2412.9725341490
[...]
  F        -0.0000630147       -0.0000195337        0.0000542093
  F         0.0000324817       -0.0000364777        0.0000523518
  F         0.0000194788       -0.0000574781       -0.0000536609
  F         0.0000460938        0.0000651435       -0.0000477975
  F         0.0000569579        0.0000578899       -0.0000502332
  F        -0.0000275361       -0.0000174479        0.0000587405

 -------------------------------------------------------------------------------
 -                                                                             -
 -                                DBCSR STATISTICS                             -
 -                                                                             -
 -------------------------------------------------------------------------------
 COUNTER                                    TOTAL       BLAS       SMM       ACC
 flops     3 x     3 x     3               534222     100.0%      0.0%      0.0%
 flops    35 x     3 x     3               624960     100.0%      0.0%      0.0%
 flops    32 x     3 x     3              6285312     100.0%      0.0%      0.0%
 flops   140 x     3 x     3             17433360     100.0%      0.0%      0.0%
 flops     3 x     3 x    70             38797920     100.0%      0.0%      0.0%
 flops     3 x     3 x    69             76487328     100.0%      0.0%      0.0%
 flops    35 x     3 x    32             79994880     100.0%      0.0%      0.0%
 flops   138 x     3 x     3             85921560     100.0%      0.0%      0.0%
 flops   139 x     3 x     3            103853016     100.0%      0.0%      0.0%
 flops    35 x     3 x    70            122892000     100.0%      0.0%      0.0%
 flops    18 x    32 x    32            184025088     100.0%      0.0%      0.0%
 flops    35 x     3 x    69            242272800     100.0%      0.0%      0.0%
 flops   140 x     3 x    32            337075200     100.0%      0.0%      0.0%
 flops    17 x    32 x    32            347602944     100.0%      0.0%      0.0%
 flops   140 x     3 x    70            491568000     100.0%      0.0%      0.0%
 flops    35 x    32 x    70            797798400     100.0%      0.0%      0.0%
 flops    32 x     3 x    32            851410944     100.0%      0.0%      0.0%
 flops   140 x     3 x    69            969091200     100.0%      0.0%      0.0%
 flops    32 x     3 x    70           1304325120     100.0%      0.0%      0.0%
 flops    35 x    32 x    69           1572802560     100.0%      0.0%      0.0%
 flops   138 x     3 x    32           1661299200     100.0%      0.0%      0.0%
 flops   139 x     3 x    32           2008005120     100.0%      0.0%      0.0%
 flops   138 x     3 x    70           2422728000     100.0%      0.0%      0.0%
 flops    32 x     3 x    69           2571383808     100.0%      0.0%      0.0%
 flops   139 x     3 x    70           2928340800     100.0%      0.0%      0.0%
 flops   138 x     3 x    69           4776235200     100.0%      0.0%      0.0%
 flops   139 x     3 x    69           5773014720     100.0%      0.0%      0.0%
 flops    18 x     3 x    18           7978549248     100.0%      0.0%      0.0%
 flops   140 x    32 x    70          12523929600     100.0%      0.0%      0.0%
 flops    18 x     3 x    17          15070593024     100.0%      0.0%      0.0%
 flops    17 x     3 x    18          15070593024     100.0%      0.0%      0.0%
 flops   140 x    32 x    69          24690032640     100.0%      0.0%      0.0%
 flops    17 x     3 x    17          28466675712     100.0%      0.0%      0.0%
 flops    18 x    18 x    32          38889455616     100.0%      0.0%      0.0%
 flops   140 x    32 x    32          38892994560     100.0%      0.0%      0.0%
 flops   138 x    32 x    70          61725081600     100.0%      0.0%      0.0%
 flops    12 x    12 x    32          65098874880     100.0%      0.0%      0.0%
 flops    25 x    12 x    32          66768076800     100.0%      0.0%      0.0%
 flops    12 x    25 x    32          66768076800     100.0%      0.0%      0.0%
 flops    18 x    17 x    32          71231864832     100.0%      0.0%      0.0%
 flops    17 x    18 x    32          71231864832     100.0%      0.0%      0.0%
 flops    25 x    25 x    32          71723520000     100.0%      0.0%      0.0%
 flops   139 x    32 x    70          74606837760     100.0%      0.0%      0.0%
 flops   138 x    32 x    69         121686589440     100.0%      0.0%      0.0%
 flops    32 x    32 x    70         129739653120     100.0%      0.0%      0.0%
 flops    17 x    17 x    32         136651407360     100.0%      0.0%      0.0%
 flops    18 x    32 x    18         141925810176     100.0%      0.0%      0.0%
 flops    32 x    32 x    32         144388915200     100.0%      0.0%      0.0%
 flops   139 x    32 x    69         147082051584     100.0%      0.0%      0.0%
 flops   138 x    32 x    32         191686901760     100.0%      0.0%      0.0%
 flops   139 x    32 x    32         231691124736     100.0%      0.0%      0.0%
 flops    32 x    32 x    69         255772459008     100.0%      0.0%      0.0%
 flops    18 x    32 x    17         268082085888     100.0%      0.0%      0.0%
 flops    17 x    32 x    18         268082085888     100.0%      0.0%      0.0%
 flops    17 x    32 x    17         506377273344     100.0%      0.0%      0.0%
 flops inhomo. stacks                           0       0.0%      0.0%      0.0%
 flops total                         3.303675E+12     100.0%      0.0%      0.0%
 flops max/rank                     28.670695E+09     100.0%      0.0%      0.0%
 matmuls inhomo. stacks                         0       0.0%      0.0%      0.0%
 matmuls total                          139297733     100.0%      0.0%      0.0%
 number of processed stacks              28303541     100.0%      0.0%      0.0%
 average stack size                                     4.9       0.0       0.0
 marketing flops                     3.890710E+12
 -------------------------------------------------------------------------------
 # multiplications                          32286
 max memory usage/rank             677.502976E+06
 # max total images/rank                        2
 # max 3D layers                                1
 # MPI messages exchanged               641587392
 MPI messages size (bytes):
  total size                         3.845699E+12
  min size                           0.000000E+00
  max size                          78.400000E+03
  average size                       5.994038E+03
 MPI breakdown and total messages size (bytes):
             size <=      128           543132948                 45952344
       128 < size <=     8192            25160988             140613936384
      8192 < size <=    32768            26954988             480332418048
     32768 < size <=   131072            46338468            3226234308608
    131072 < size <=  4194304                   0                        0
   4194304 < size <= 16777216                   0                        0
  16777216 < size                               0                        0
 -------------------------------------------------------------------------------

 *** WARNING in dbcsr/mm/dbcsr_mm.F:268 :: Using a non-square number of ***
 *** MPI ranks might lead to poor performance.                          ***
 *** Used ranks: 288                                                    ***
 *** Suggested: 289 576                                                 ***

 -------------------------------------------------------------------------------
 
 MEMORY| Estimated peak process memory [MiB]                                 647

 -------------------------------------------------------------------------------
 ----                             MULTIGRID INFO                            ----
 -------------------------------------------------------------------------------
 count for grid        1:       17892486          cutoff [a.u.]          325.00
 count for grid        2:       25364432          cutoff [a.u.]          108.33
 count for grid        3:       46476303          cutoff [a.u.]           36.11
 count for grid        4:       31821592          cutoff [a.u.]           12.04
 count for grid        5:       21938115          cutoff [a.u.]            4.01
 total gridlevel count  :      143492928

 -------------------------------------------------------------------------------
 -                                                                             -
 -                         MESSAGE PASSING PERFORMANCE                         -
 -                                                                             -
 -------------------------------------------------------------------------------

 ROUTINE             CALLS      AVE VOLUME [Bytes]
 MP_Group             3091
 MP_Bcast            24872                  50161.
 MP_Allreduce       224970                     41.
 MP_Sync             10162
 MP_Alltoall        146892               18488423.
 MP_ISendRecv      1450498                  61763.
 MP_Wait           8172986
 MP_comm_split        1620
 MP_ISend          4682666                   3469.
 MP_IRecv          4724956                   3426.
 MP_Recv               483                 212992.
 MP_Memory         1821676
 -------------------------------------------------------------------------------


 -------------------------------------------------------------------------------
 -                                                                             -
 -                           R E F E R E N C E S                               -
 -                                                                             -
 -------------------------------------------------------------------------------
 
 CP2K version 7.0 (Development Version), the CP2K developers group (2018).
 CP2K is freely available from https://www.cp2k.org/ .

 Schuett, Ole; Messmer, Peter; Hutter, Juerg; VandeVondele, Joost. 
 Electronic Structure Calculations on Graphics Processing Units, John Wiley & Sons, Ltd, 173-190 (2016). 
 GPU-Accelerated Sparse Matrix-Matrix Multiplication for Linear Scaling Density Functional Theory.
 https://dx.doi.org/10.1002/9781118670712.ch8


 Borstnik, U; VandeVondele, J; Weber, V; Hutter, J. 
 PARALLEL COMPUTING, 40 (5-6), 47-58 (2014). 
 Sparse matrix multiplication: The distributed block-compressed sparse
 row library.
 https://dx.doi.org/10.1016/j.parco.2014.03.012


 Hutter, J; Iannuzzi, M; Schiffmann, F; VandeVondele, J. 
 WILEY INTERDISCIPLINARY REVIEWS-COMPUTATIONAL MOLECULAR SCIENCE, 4 (1), 15-25 (2014). 
 CP2K: atomistic simulations of condensed matter systems.
 https://dx.doi.org/10.1002/wcms.1159


 Guidon, M; Hutter, J; VandeVondele, J. 
 JOURNAL OF CHEMICAL THEORY AND COMPUTATION, 6 (8), 2348-2364 (2010). 
 Auxiliary Density Matrix Methods for Hartree-Fock Exchange Calculations.
 https://dx.doi.org/10.1021/ct1002225


 Guidon, M; Hutter, J; VandeVondele, J. 
 JOURNAL OF CHEMICAL THEORY AND COMPUTATION, 5 (11), 3010-3021 (2009). 
 Robust Periodic Hartree-Fock Exchange for Large-Scale Simulations Using
 Gaussian Basis Sets.
 https://dx.doi.org/10.1021/ct900494g


 Guidon, M; Schiffmann, F; Hutter, J; VandeVondele, J. 
 JOURNAL OF CHEMICAL PHYSICS, 128 (21), 214104 (2008). 
 Ab initio molecular dynamics using hybrid density functionals.
 https://dx.doi.org/10.1063/1.2931945


 VandeVondele, J; Hutter, J. 
 JOURNAL OF CHEMICAL PHYSICS, 127 (11), 114105 (2007). 
 Gaussian basis sets for accurate calculations on molecular systems in
 gas and condensed phases.
 https://dx.doi.org/10.1063/1.2770708


 Krack, M. 
 THEORETICAL CHEMISTRY ACCOUNTS, 114 (1-3), 145-152 (2005). 
 Pseudopotentials for H to Kr optimized for gradient-corrected
 exchange-correlation functionals.
 https://dx.doi.org/10.1007/s00214-005-0655-y


 VandeVondele, J; Krack, M; Mohamed, F; Parrinello, M; Chassaing, T;
 Hutter, J. COMPUTER PHYSICS COMMUNICATIONS, 167 (2), 103-128 (2005). 
 QUICKSTEP: Fast and accurate density functional calculations using a
 mixed Gaussian and plane waves approach.
 https://dx.doi.org/10.1016/j.cpc.2004.12.014


 Frigo, M; Johnson, SG. 
 PROCEEDINGS OF THE IEEE, 93 (2), 216-231 (2005). 
 The design and implementation of FFTW3.
 https://dx.doi.org/10.1109/JPROC.2004.840301


 Heyd, J; Scuseria, GE. 
 JOURNAL OF CHEMICAL PHYSICS, 120 (16), 7274-7280 (2004). 
 Assessment and validation of a screened Coulomb hybrid density
 functional.
 https://dx.doi.org/10.1063/1.1668634


 Kolafa, J. 
 JOURNAL OF COMPUTATIONAL CHEMISTRY, 25 (3), 335-342 (2004). 
 Time-reversible always stable predictor-corrector method for molecular dynamics of polarizable molecules.
 https://dx.doi.org/10.1002/jcc.10385


 VandeVondele, J; Hutter, J. 
 JOURNAL OF CHEMICAL PHYSICS, 118 (10), 4365-4369 (2003). 
 An efficient orbital transformation method for electronic structure
 calculations.
 https://dx.doi.org/10.1063/1.1543154


 Hartwigsen, C; Goedecker, S; Hutter, J. 
 PHYSICAL REVIEW B, 58 (7), 3641-3662 (1998). 
 Relativistic separable dual-space Gaussian pseudopotentials from H to Rn.
 https://dx.doi.org/10.1103/PhysRevB.58.3641


 Lippert, G; Hutter, J; Parrinello, M. 
 MOLECULAR PHYSICS, 92 (3), 477-487 (1997). 
 A hybrid Gaussian and plane wave density functional scheme.
 https://dx.doi.org/10.1080/002689797170220


 Perdew, JP; Burke, K; Ernzerhof, M. 
 PHYSICAL REVIEW LETTERS, 77 (18), 3865-3868 (1996). 
 Generalized gradient approximation made simple.
 https://dx.doi.org/10.1103/PhysRevLett.77.3865


 Goedecker, S; Teter, M; Hutter, J. 
 PHYSICAL REVIEW B, 54 (3), 1703-1710 (1996). 
 Separable dual-space Gaussian pseudopotentials.
 https://dx.doi.org/10.1103/PhysRevB.54.1703


 BYRD, RH; LU, PH; NOCEDAL, J; ZHU, CY. 
 SIAM JOURNAL ON SCIENTIFIC COMPUTING, 16 (5), 1190-1208 (1995). 
 A LIMITED MEMORY ALGORITHM FOR BOUND CONSTRAINED OPTIMIZATION.
 https://dx.doi.org/10.1137/0916069


 -------------------------------------------------------------------------------
 -                                                                             -
 -                                T I M I N G                                  -
 -                                                                             -
 -------------------------------------------------------------------------------
 SUBROUTINE                       CALLS  ASD         SELF TIME        TOTAL TIME
                                MAXIMUM       AVERAGE  MAXIMUM  AVERAGE  MAXIMUM
 CP2K                                 1  1.0     0.40     0.45 36499.97 36499.98
 cp_geo_opt                           1  2.0     0.01     0.02 36494.91 36494.92
 geoopt_lbfgs                         1  3.0     0.00     0.01 36494.90 36494.90
 cp_eval_at                          13  4.9     0.07     0.10 36493.69 36494.26
 cp_opt_gopt_step                     4  4.0     0.09     0.24 35581.63 35581.65
 qs_forces                           12  6.0     0.08     0.14 35580.26 35580.79
 rebuild_ks_matrix                  283 10.8     0.00     0.01 25075.95 25080.01
 qs_ks_build_kohn_sham_matrix       283 11.8     0.15     0.20 25075.95 25080.01
 hfx_ks_matrix                      283 12.8     0.04     0.08 20693.92 20697.50
 qs_energies                         13  6.8     0.08     0.14 18370.63 18372.44
 qs_ks_update_qs_env_forces          12  7.0     0.00     0.00 14898.60 14901.15
 derivatives_four_center             12 11.0     0.03     0.09 14417.39 14419.80
 derivatives_four_center_main        12 12.0     0.01     0.04 14402.37 14404.79
 derivatives_four_center_bin        778 13.0  9734.50 13415.06  9734.50 13415.06
 scf_env_do_scf                      13  7.8     0.01     0.02 12938.18 12939.35
 qs_ks_update_qs_env                284 10.0     0.02     0.04 10179.66 10181.87
 mp_sum_lv                           87  6.4  4668.53  8134.69  4668.53  8134.69
 scf_env_do_scf_inner_loop          271  9.0     0.03     0.07  8098.68  8099.91
 mp_waitall_1                   8172986 16.3  5014.69  6668.28  5014.69  6668.28
 integrate_four_center              283 13.8     2.13     2.80  6276.45  6278.49
 rs_pw_transfer                    4426 14.8     0.04     0.09  4264.25  5903.63
 integrate_four_center_main         283 14.8     0.09     0.24  4296.86  5836.72
 integrate_four_center_bin        18361 15.8  4296.77  5836.62  4296.77  5836.62
 rs_pw_transfer_RS2PW_330           593 15.3    19.16    27.46  3656.02  5260.24
 init_scf_loop                       13  8.8     0.03     0.04  4837.21  4838.37
 calculate_rho_elec                 567 12.4  1301.54  2748.95  3763.86  3775.80
 mp_sync                          10162 19.1  1974.62  3471.48  1974.62  3471.48
 density_rs2pw                      567 13.4     0.04     0.08  2422.18  3241.63
 build_core_hamiltonian_matrix_      12  7.0     0.01     0.04  1625.11  3207.24
 qs_energies_init_hamiltonians       13  7.8     0.03     0.06  2936.99  2938.01
 build_core_hamiltonian_matrix       13  8.8     0.00     0.04  1459.67  2919.10
 build_core_ppnl                     13  9.8  1364.93  2735.37  1364.93  2735.37
 mp_sum_d                         26555 14.6  1738.22  2697.21  1738.22  2697.21
 build_core_ppnl_forces              12  8.0  1330.16  2637.57  1330.16  2637.57
 calculate_ecore_overlap             25  8.0     0.00     0.01  1583.75  2533.19
 scf_post_calculation_gpw            13  7.8     0.02     0.04  2374.83  2375.39
 sum_up_and_integrate               154 12.7     0.12     0.22  1892.76  2361.90
 integrate_v_rspace                 308 13.7   859.89  1764.56  1892.63  2361.72
 qs_env_update_s_mstruct             13  8.8     0.00     0.02  1475.50  2348.57
 calculate_rho_core                  13  9.8     0.02     0.27  1474.28  2347.98
 make_lumo                           13  8.8     0.00     0.00  2307.04  2307.55
 ot_eigensolver                      13  9.8     0.04     0.13  2304.02  2304.60
 dbcsr_multiply_generic           32286 13.0     1.62     1.90  2202.71  2226.60
 qs_rho_update_rho                  284 10.0     0.01     0.03  2144.35  2155.80
 admm_mo_calc_rho_aux               283 12.8     0.01     0.02  1701.42  1702.48
 potential_pw2rs                    308 14.7     0.03     0.06  1032.65  1402.43
 pw_transfer                       8605 14.9     0.39     0.48   797.96  1168.69
 fft_wrap_pw1pw2                   8039 16.0     0.05     0.08   797.49  1168.32
 qs_ot_get_p                       2308 11.1     0.02     0.04  1110.40  1123.35
 mp_alltoall_z22v                 12578 20.0   738.27  1107.15   738.27  1107.15
 fft_wrap_pw1pw2_330               4539 17.1     0.89     1.24   734.24  1103.91
 fft3d_pb                          4539 18.1     6.42    12.80   732.15  1102.07
 multiply_cannon                  32286 14.0     9.06     9.62  1039.78  1077.86
 ot_mini                           2242 11.1     0.01     0.02  1038.91  1039.57
 cube_transpose_2                  4080 18.6     0.32     0.49   460.83   965.97
 qs_ot_get_derivative              1134 12.1     0.02     0.04   854.56   857.48
 admm_mo_merge_ks_matrix            283 12.8     0.00     0.02   597.68   789.91
 merge_ks_matrix_none               283 13.8     0.01     0.04   597.67   789.90
 copy_dbcsr_to_fm                  3085 13.5     0.06     0.10   576.21   770.98
 mp_alltoall_i22                  10844 15.7   549.76   754.58   549.76   754.58
 -------------------------------------------------------------------------------

 The number of warnings for this run is : 2
 
 -------------------------------------------------------------------------------
  **** **** ******  **  PROGRAM ENDED AT                 2018-11-13 20:17:07.638
 ***** ** ***  *** **   PROGRAM RAN ON                                     sm153
 **    ****   ******    PROGRAM RAN BY                                    npopov
 ***** **    ** ** **   PROGRAM PROCESS ID                                  1013
  **** **  *******  **  PROGRAM STOPPED IN          /home/npopov/nd/pstr/baf2_96
