 DBCSR| Multiplication driver                                               BLAS
 DBCSR| Multrec recursion limit                                              512
 DBCSR| Multiplication stack size                                           1000
 DBCSR| Maximum elements for images                                    UNLIMITED
 DBCSR| Multiplicative factor virtual images                                   1
 DBCSR| Multiplication size stacks                                             3
 DBCSR| Number of 3D layers                                               SINGLE
 DBCSR| Use MPI memory allocation                                              T
 DBCSR| Use RMA algorithm                                                      F
 DBCSR| Use Communication thread                                               T
 DBCSR| Communication thread load                                             87


  **** **** ******  **  PROGRAM STARTED AT               2018-11-14 21:18:48.024
 ***** ** ***  *** **   PROGRAM STARTED ON                                 sm113
 **    ****   ******    PROGRAM STARTED BY                                npopov
 ***** **    ** ** **   PROGRAM PROCESS ID                                 24082
  **** **  *******  **  PROGRAM STARTED IN     /home/npopov/nd/pstr/baf2_96_nd3p

 CP2K| version string:                    CP2K version 7.0 (Development Version)
 CP2K| source code revision number:                                             
 CP2K| cp2kflags: libint fftw3 libxc parallel mpi2 scalapack libderiv_max_am1=5 
 CP2K|            libint_max_am=6 max_contr=4 mkl
 CP2K| is freely available from                            https://www.cp2k.org/
 CP2K| Program compiled at                          Tue Oct 23 14:28:01 +08 2018
 CP2K| Program compiled on                                                 sm101
 CP2K| Program compiled for                                                   np
 CP2K| Data directory path                      /home/npopov/progs/cp2k-git/data
 CP2K| Input file name                                                  calc.inp
 
 GLOBAL| Force Environment number                                              1
 GLOBAL| Basis set file name            /home/npopov/progs/cp2k-git/data/BASIS_A
 GLOBAL| Potential file name            /home/npopov/progs/cp2k-git/data/GTH_POT
 GLOBAL| MM Potential file name                                     MM_POTENTIAL
 GLOBAL| Coordinate file name                                      __STD_INPUT__
 GLOBAL| Method name                                                        CP2K
 GLOBAL| Project name                                                        bbi
 GLOBAL| Preferred FFT library                                             FFTW3
 GLOBAL| Preferred diagonalization lib.                                       SL
 GLOBAL| Run type                                                        GEO_OPT
 GLOBAL| All-to-all communication in single precision                          F
 GLOBAL| FFTs using library dependent lengths                                  F
 GLOBAL| Global print level                                               MEDIUM
 GLOBAL| MPI I/O enabled                                                       T
 GLOBAL| Total number of message passing processes                           288
 GLOBAL| Number of threads for this process                                    1
 GLOBAL| This output is from process                                           0
 GLOBAL| CPU model name :  Intel(R) Xeon(R) CPU E5-2695 v4 @ 2.10GHz

 MEMORY| system memory details [Kb]
 MEMORY|                        rank 0           min           max       average
 MEMORY| MemTotal            132053440     132053428     132053440     132053435
 MEMORY| MemFree             127175524     123690128     127175524     125242605
 MEMORY| Buffers                146800        144316        160392        154238
 MEMORY| Cached                 706512        706512       4048864       2530067
 MEMORY| Slab                  2269648       2269648       2376200       2336604
 MEMORY| SReclaimable            62712         62712        166128        136577
 MEMORY| MemLikelyFree       128091548     128045852     128091548     128063488


 *** Fundamental physical constants (SI units) ***

 *** Literature: B. J. Mohr and B. N. Taylor,
 ***             CODATA recommended values of the fundamental physical
 ***             constants: 2006, Web Version 5.1
 ***             http://physics.nist.gov/constants

 Speed of light in vacuum [m/s]                             2.99792458000000E+08
 Magnetic constant or permeability of vacuum [N/A**2]       1.25663706143592E-06
 Electric constant or permittivity of vacuum [F/m]          8.85418781762039E-12
 Planck constant (h) [J*s]                                  6.62606896000000E-34
 Planck constant (h-bar) [J*s]                              1.05457162825177E-34
 Elementary charge [C]                                      1.60217648700000E-19
 Electron mass [kg]                                         9.10938215000000E-31
 Electron g factor [ ]                                     -2.00231930436220E+00
 Proton mass [kg]                                           1.67262163700000E-27
 Fine-structure constant                                    7.29735253760000E-03
 Rydberg constant [1/m]                                     1.09737315685270E+07
 Avogadro constant [1/mol]                                  6.02214179000000E+23
 Boltzmann constant [J/K]                                   1.38065040000000E-23
 Atomic mass unit [kg]                                      1.66053878200000E-27
 Bohr radius [m]                                            5.29177208590000E-11

 *** Conversion factors ***

 [u] -> [a.u.]                                              1.82288848426455E+03
 [Angstrom] -> [Bohr] = [a.u.]                              1.88972613288564E+00
 [a.u.] = [Bohr] -> [Angstrom]                              5.29177208590000E-01
 [a.u.] -> [s]                                              2.41888432650478E-17
 [a.u.] -> [fs]                                             2.41888432650478E-02
 [a.u.] -> [J]                                              4.35974393937059E-18
 [a.u.] -> [N]                                              8.23872205491840E-08
 [a.u.] -> [K]                                              3.15774647902944E+05
 [a.u.] -> [kJ/mol]                                         2.62549961709828E+03
 [a.u.] -> [kcal/mol]                                       6.27509468713739E+02
 [a.u.] -> [Pa]                                             2.94210107994716E+13
 [a.u.] -> [bar]                                            2.94210107994716E+08
 [a.u.] -> [atm]                                            2.90362800883016E+08
 [a.u.] -> [eV]                                             2.72113838565563E+01
 [a.u.] -> [Hz]                                             6.57968392072181E+15
 [a.u.] -> [1/cm] (wave numbers)                            2.19474631370540E+05
 [a.u./Bohr**2] -> [1/cm]                                   5.14048714338585E+03
 

 CELL_TOP| Volume [angstrom^3]:                                         1984.303
 CELL_TOP| Vector a [angstrom    12.566     0.000     0.000    |a| =      12.566
 CELL_TOP| Vector b [angstrom     0.000    12.566     0.000    |b| =      12.566
 CELL_TOP| Vector c [angstrom     0.000     0.000    12.566    |c| =      12.566
 CELL_TOP| Angle (b,c), alpha [degree]:                                   90.000
 CELL_TOP| Angle (a,c), beta  [degree]:                                   90.000
 CELL_TOP| Angle (a,b), gamma [degree]:                                   90.000
 CELL_TOP| Numerically orthorhombic:                                         YES
 
 GENERATE|  Preliminary Number of Bonds generated:                             0
 GENERATE|  Achieved consistency in connectivity generation.

 CELL| Volume [angstrom^3]:                                             1984.303
 CELL| Vector a [angstrom]:      12.566     0.000     0.000    |a| =      12.566
 CELL| Vector b [angstrom]:       0.000    12.566     0.000    |b| =      12.566
 CELL| Vector c [angstrom]:       0.000     0.000    12.566    |c| =      12.566
 CELL| Angle (b,c), alpha [degree]:                                       90.000
 CELL| Angle (a,c), beta  [degree]:                                       90.000
 CELL| Angle (a,b), gamma [degree]:                                       90.000
 CELL| Numerically orthorhombic:                                             YES

 CELL_REF| Volume [angstrom^3]:                                         1984.303
 CELL_REF| Vector a [angstrom    12.566     0.000     0.000    |a| =      12.566
 CELL_REF| Vector b [angstrom     0.000    12.566     0.000    |b| =      12.566
 CELL_REF| Vector c [angstrom     0.000     0.000    12.566    |c| =      12.566
 CELL_REF| Angle (b,c), alpha [degree]:                                   90.000
 CELL_REF| Angle (a,c), beta  [degree]:                                   90.000
 CELL_REF| Angle (a,b), gamma [degree]:                                   90.000
 CELL_REF| Numerically orthorhombic:                                         YES

 *******************************************************************************
 *******************************************************************************
 **                                                                           **
 **     #####                         ##              ##                      **
 **    ##   ##            ##          ##              ##                      **
 **   ##     ##                       ##            ######                    **
 **   ##     ##  ##   ##  ##   #####  ##  ##   ####   ##    #####    #####    **
 **   ##     ##  ##   ##  ##  ##      ## ##   ##      ##   ##   ##  ##   ##   **
 **   ##  ## ##  ##   ##  ##  ##      ####     ###    ##   ######   ######    **
 **    ##  ###   ##   ##  ##  ##      ## ##      ##   ##   ##       ##        **
 **     #######   #####   ##   #####  ##  ##  ####    ##    #####   ##        **
 **           ##                                                    ##        **
 **                                                                           **
 **                                                ... make the atoms dance   **
 **                                                                           **
 **            Copyright (C) by CP2K developers group (2000 - 2018)           **
 **                                                                           **
 *******************************************************************************

 DFT| Spin unrestricted (spin-polarized) Kohn-Sham calculation               UKS
 DFT| Multiplicity                                                             5
 DFT| Number of spin states                                                    2
 DFT| Charge                                                                   0
 DFT| Self-interaction correction (SIC)                                       NO
 DFT| Cutoffs: density                                              1.000000E-10
 DFT|          gradient                                             1.000000E-10
 DFT|          tau                                                  1.000000E-10
 DFT|          cutoff_smoothing_range                               0.000000E+00
 DFT| XC density smoothing                                                  NONE
 DFT| XC derivatives                                                          PW
 FUNCTIONAL| ROUTINE=NEW
 FUNCTIONAL| PBE:
 FUNCTIONAL| J.P.Perdew, K.Burke, M.Ernzerhof, Phys. Rev. Letter, vol. 77, n 18,
 FUNCTIONAL|  pp. 3865-3868, (1996)sx=0.000sc=1.000{spin polarized}             
 FUNCTIONAL| XWPBE:
 FUNCTIONAL| Jochen Heyd and Gustavo E. Scuseria, J. Chem. Phys., 120, 7274 {LSD
 FUNCTIONAL|  version}                                                          

 QS| Method:                                                                 GPW
 QS| Density plane wave grid type                        NON-SPHERICAL FULLSPACE
 QS| Number of grid levels:                                                    5
 QS| Density cutoff [a.u.]:                                                325.0
 QS| Multi grid cutoff [a.u.]: 1) grid level                               325.0
 QS|                           2) grid level                               108.3
 QS|                           3) grid level                                36.1
 QS|                           4) grid level                                12.0
 QS|                           5) grid level                                 4.0
 QS| Grid level progression factor:                                          3.0
 QS| Relative density cutoff [a.u.]:                                        30.0
 QS| Consistent realspace mapping and integration 
 QS| Interaction thresholds: eps_pgf_orb:                                1.0E-40
 QS|                         eps_filter_matrix:                          1.0E-40
 QS|                         eps_core_charge:                            1.0E-42
 QS|                         eps_rho_gspace:                             1.0E-40
 QS|                         eps_rho_rspace:                             1.0E-40
 QS|                         eps_gvg_rspace:                             1.0E-20
 QS|                         eps_ppl:                                    1.0E-02
 QS|                         eps_ppnl:                                   1.0E-22


 ATOMIC KIND INFORMATION

  1. Atomic kind: Ba                                    Number of atoms:      31

     Orbital Basis Set                                    TZVP-MOLOPT-SR-GTH-q10

       Number of orbital shell sets:                                           1
       Number of orbital shells:                                               8
       Number of primitive Cartesian functions:                                6
       Number of Cartesian basis functions:                                   19
       Number of spherical basis functions:                                   18
       Norm type:                                                              2

       Normalised Cartesian orbitals:

                        Set   Shell   Orbital            Exponent    Coefficient

                          1       1    2s                1.099107       1.203910
                                                         1.042416      -2.281486
                                                         0.923816       0.603764
                                                         0.409515       0.721861
                                                         0.166001      -0.215201
                                                         0.038868       0.055199

                          1       2    3s                1.099107       0.188406
                                                         1.042416      -0.058781
                                                         0.923816      -0.071848
                                                         0.409515      -0.182307
                                                         0.166001       0.061747
                                                         0.038868       0.058950

                          1       3    4s                1.099107       0.286284
                                                         1.042416      -0.400298
                                                         0.923816       0.316080
                                                         0.409515      -0.349929
                                                         0.166001       0.034613
                                                         0.038868      -0.041385

                          1       4    5s                1.099107       0.103627
                                                         1.042416      -0.060610
                                                         0.923816      -0.042568
                                                         0.409515       0.121559
                                                         0.166001       0.148896
                                                         0.038868      -0.009763

                          1       5    3px               1.099107       0.037255
                                                         1.042416       2.080023
                                                         0.923816      -1.867058
                                                         0.409515      -0.283953
                                                         0.166001      -0.062025
                                                         0.038868       0.012622
                          1       5    3py               1.099107       0.037255
                                                         1.042416       2.080023
                                                         0.923816      -1.867058
                                                         0.409515      -0.283953
                                                         0.166001      -0.062025
                                                         0.038868       0.012622
                          1       5    3pz               1.099107       0.037255
                                                         1.042416       2.080023
                                                         0.923816      -1.867058
                                                         0.409515      -0.283953
                                                         0.166001      -0.062025
                                                         0.038868       0.012622

                          1       6    4px               1.099107       0.476978
                                                         1.042416      -0.471787
                                                         0.923816       0.087207
                                                         0.409515      -0.129822
                                                         0.166001       0.040162
                                                         0.038868       0.022355
                          1       6    4py               1.099107       0.476978
                                                         1.042416      -0.471787
                                                         0.923816       0.087207
                                                         0.409515      -0.129822
                                                         0.166001       0.040162
                                                         0.038868       0.022355
                          1       6    4pz               1.099107       0.476978
                                                         1.042416      -0.471787
                                                         0.923816       0.087207
                                                         0.409515      -0.129822
                                                         0.166001       0.040162
                                                         0.038868       0.022355

                          1       7    5px               1.099107       0.411489
                                                         1.042416      -0.798990
                                                         0.923816      -0.292007
                                                         0.409515       0.605919
                                                         0.166001      -0.301207
                                                         0.038868       0.017943
                          1       7    5py               1.099107       0.411489
                                                         1.042416      -0.798990
                                                         0.923816      -0.292007
                                                         0.409515       0.605919
                                                         0.166001      -0.301207
                                                         0.038868       0.017943
                          1       7    5pz               1.099107       0.411489
                                                         1.042416      -0.798990
                                                         0.923816      -0.292007
                                                         0.409515       0.605919
                                                         0.166001      -0.301207
                                                         0.038868       0.017943

                          1       8    4dx2              1.099107       2.668458
                                                         1.042416      -2.755323
                                                         0.923816       0.229608
                                                         0.409515      -0.114085
                                                         0.166001      -0.042847
                                                         0.038868      -0.001242
                          1       8    4dxy              1.099107       4.621905
                                                         1.042416      -4.772360
                                                         0.923816       0.397692
                                                         0.409515      -0.197601
                                                         0.166001      -0.074213
                                                         0.038868      -0.002151
                          1       8    4dxz              1.099107       4.621905
                                                         1.042416      -4.772360
                                                         0.923816       0.397692
                                                         0.409515      -0.197601
                                                         0.166001      -0.074213
                                                         0.038868      -0.002151
                          1       8    4dy2              1.099107       2.668458
                                                         1.042416      -2.755323
                                                         0.923816       0.229608
                                                         0.409515      -0.114085
                                                         0.166001      -0.042847
                                                         0.038868      -0.001242
                          1       8    4dyz              1.099107       4.621905
                                                         1.042416      -4.772360
                                                         0.923816       0.397692
                                                         0.409515      -0.197601
                                                         0.166001      -0.074213
                                                         0.038868      -0.002151
                          1       8    4dz2              1.099107       2.668458
                                                         1.042416      -2.755323
                                                         0.923816       0.229608
                                                         0.409515      -0.114085
                                                         0.166001      -0.042847
                                                         0.038868      -0.001242

     Auxiliary Fit Basis Set                                               FIT11

       Number of orbital shell sets:                                          11
       Number of orbital shells:                                              11
       Number of primitive Cartesian functions:                               11
       Number of Cartesian basis functions:                                   26
       Number of spherical basis functions:                                   25
       Norm type:                                                              2

       Normalised Cartesian orbitals:

                        Set   Shell   Orbital            Exponent    Coefficient

                          1       1    1s                0.038875       0.062397

                          2       1    1s                0.117061       0.142633

                          3       1    1s                0.380944       0.345586

                          4       1    1s                1.814537       1.114255

                          5       1    1s                3.207545       1.708204

                          6       1    1px               0.040361       0.025786
                          6       1    1py               0.040361       0.025786
                          6       1    1pz               0.040361       0.025786

                          7       1    1px               0.173794       0.159950
                          7       1    1py               0.173794       0.159950
                          7       1    1pz               0.173794       0.159950

                          8       1    1px               0.458123       0.537240
                          8       1    1py               0.458123       0.537240
                          8       1    1pz               0.458123       0.537240

                          9       1    1px               2.159859       3.732260
                          9       1    1py               2.159859       3.732260
                          9       1    1pz               2.159859       3.732260

                         10       1    1px               3.110732       5.888686
                         10       1    1py               3.110732       5.888686
                         10       1    1pz               3.110732       5.888686

                         11       1    1dx2              0.221258       0.117485
                         11       1    1dxy              0.221258       0.203490
                         11       1    1dxz              0.221258       0.203490
                         11       1    1dy2              0.221258       0.117485
                         11       1    1dyz              0.221258       0.203490
                         11       1    1dz2              0.221258       0.117485

     GTH Potential information for                                   GTH-PBE-q10

       Description:                       Goedecker-Teter-Hutter pseudopotential
                                           Goedecker et al., PRB 54, 1703 (1996)
                                          Hartwigsen et al., PRB 58, 3641 (1998)
                                                      Krack, TCA 114, 145 (2005)

       Gaussian exponent of the core charge distribution:               1.714678
       Electronic configuration (s p d ...):                               4   6

       Parameters of the local part of the GTH pseudopotential:

                          rloc        C1          C2          C3          C4
                        0.540000   24.526781   -2.468670

       Parameters of the non-local part of the GTH pseudopotential:

                   l      r(l)      h(i,j,l)

                   0    0.492068    0.095151    1.169318
                                    1.169318   -1.509584
                   1    0.391489    0.800183   -1.616839
                                   -1.616839    1.913070
                   2    0.672173    0.388531
                   3    0.300498  -19.653795

  2. Atomic kind: Nd                                    Number of atoms:       1

     Orbital Basis Set                                    TZVP-MOLOPT-SR-GTH-q14

       Number of orbital shell sets:                                           1
       Number of orbital shells:                                              14
       Number of primitive Cartesian functions:                                7
       Number of Cartesian basis functions:                                   76
       Number of spherical basis functions:                                   58
       Norm type:                                                              2

       Normalised Cartesian orbitals:

                        Set   Shell   Orbital            Exponent    Coefficient

                          1       1    2s                4.698897       0.100862
                                                         2.968840      -0.800757
                                                         1.627478       1.228112
                                                         0.758189      -0.255133
                                                         0.320142      -0.404940
                                                         0.120196       0.075126
                                                         0.037579      -0.024513

                          1       2    3s                4.698897       0.003245
                                                         2.968840      -0.032190
                                                         1.627478      -0.031008
                                                         0.758189       0.085023
                                                         0.320142      -0.073763
                                                         0.120196       0.035261
                                                         0.037579       0.054189

                          1       3    4s                4.698897       0.256217
                                                         2.968840      -1.160927
                                                         1.627478       0.490023
                                                         0.758189       0.717389
                                                         0.320142       0.002052
                                                         0.120196      -0.106946
                                                         0.037579      -0.000152

                          1       4    5s                4.698897      -0.111353
                                                         2.968840       0.295074
                                                         1.627478       0.589506
                                                         0.758189      -0.461421
                                                         0.320142       0.033003
                                                         0.120196      -0.168442
                                                         0.037579       0.030395

                          1       5    3px               4.698897       0.199984
                                                         2.968840       0.122101
                                                         1.627478      -0.171844
                                                         0.758189      -0.385171
                                                         0.320142      -0.054020
                                                         0.120196       0.061584
                                                         0.037579       0.013164
                          1       5    3py               4.698897       0.199984
                                                         2.968840       0.122101
                                                         1.627478      -0.171844
                                                         0.758189      -0.385171
                                                         0.320142      -0.054020
                                                         0.120196       0.061584
                                                         0.037579       0.013164
                          1       5    3pz               4.698897       0.199984
                                                         2.968840       0.122101
                                                         1.627478      -0.171844
                                                         0.758189      -0.385171
                                                         0.320142      -0.054020
                                                         0.120196       0.061584
                                                         0.037579       0.013164

                          1       6    4px               4.698897      -0.052699
                                                         2.968840      -0.138454
                                                         1.627478      -0.270140
                                                         0.758189       0.582379
                                                         0.320142       0.110357
                                                         0.120196       0.012891
                                                         0.037579       0.007903
                          1       6    4py               4.698897      -0.052699
                                                         2.968840      -0.138454
                                                         1.627478      -0.270140
                                                         0.758189       0.582379
                                                         0.320142       0.110357
                                                         0.120196       0.012891
                                                         0.037579       0.007903
                          1       6    4pz               4.698897      -0.052699
                                                         2.968840      -0.138454
                                                         1.627478      -0.270140
                                                         0.758189       0.582379
                                                         0.320142       0.110357
                                                         0.120196       0.012891
                                                         0.037579       0.007903

                          1       7    5px               4.698897       0.941218
                                                         2.968840      -0.153923
                                                         1.627478      -1.299492
                                                         0.758189      -0.342934
                                                         0.320142       0.310441
                                                         0.120196       0.056144
                                                         0.037579      -0.015260
                          1       7    5py               4.698897       0.941218
                                                         2.968840      -0.153923
                                                         1.627478      -1.299492
                                                         0.758189      -0.342934
                                                         0.320142       0.310441
                                                         0.120196       0.056144
                                                         0.037579      -0.015260
                          1       7    5pz               4.698897       0.941218
                                                         2.968840      -0.153923
                                                         1.627478      -1.299492
                                                         0.758189      -0.342934
                                                         0.320142       0.310441
                                                         0.120196       0.056144
                                                         0.037579      -0.015260

                          1       8    4dx2              4.698897      -0.056991
                                                         2.968840      -0.106877
                                                         1.627478       0.314112
                                                         0.758189      -0.299390
                                                         0.320142      -0.151771
                                                         0.120196       0.008248
                                                         0.037579       0.003447
                          1       8    4dxy              4.698897      -0.098710
                                                         2.968840      -0.185116
                                                         1.627478       0.544057
                                                         0.758189      -0.518560
                                                         0.320142      -0.262875
                                                         0.120196       0.014286
                                                         0.037579       0.005971
                          1       8    4dxz              4.698897      -0.098710
                                                         2.968840      -0.185116
                                                         1.627478       0.544057
                                                         0.758189      -0.518560
                                                         0.320142      -0.262875
                                                         0.120196       0.014286
                                                         0.037579       0.005971
                          1       8    4dy2              4.698897      -0.056991
                                                         2.968840      -0.106877
                                                         1.627478       0.314112
                                                         0.758189      -0.299390
                                                         0.320142      -0.151771
                                                         0.120196       0.008248
                                                         0.037579       0.003447
                          1       8    4dyz              4.698897      -0.098710
                                                         2.968840      -0.185116
                                                         1.627478       0.544057
                                                         0.758189      -0.518560
                                                         0.320142      -0.262875
                                                         0.120196       0.014286
                                                         0.037579       0.005971
                          1       8    4dz2              4.698897      -0.056991
                                                         2.968840      -0.106877
                                                         1.627478       0.314112
                                                         0.758189      -0.299390
                                                         0.320142      -0.151771
                                                         0.120196       0.008248
                                                         0.037579       0.003447

                          1       9    5dx2              4.698897       0.199146
                                                         2.968840      -0.300081
                                                         1.627478       0.179120
                                                         0.758189      -0.316813
                                                         0.320142      -0.081135
                                                         0.120196      -0.010480
                                                         0.037579      -0.002330
                          1       9    5dxy              4.698897       0.344931
                                                         2.968840      -0.519756
                                                         1.627478       0.310245
                                                         0.758189      -0.548737
                                                         0.320142      -0.140530
                                                         0.120196      -0.018151
                                                         0.037579      -0.004035
                          1       9    5dxz              4.698897       0.344931
                                                         2.968840      -0.519756
                                                         1.627478       0.310245
                                                         0.758189      -0.548737
                                                         0.320142      -0.140530
                                                         0.120196      -0.018151
                                                         0.037579      -0.004035
                          1       9    5dy2              4.698897       0.199146
                                                         2.968840      -0.300081
                                                         1.627478       0.179120
                                                         0.758189      -0.316813
                                                         0.320142      -0.081135
                                                         0.120196      -0.010480
                                                         0.037579      -0.002330
                          1       9    5dyz              4.698897       0.344931
                                                         2.968840      -0.519756
                                                         1.627478       0.310245
                                                         0.758189      -0.548737
                                                         0.320142      -0.140530
                                                         0.120196      -0.018151
                                                         0.037579      -0.004035
                          1       9    5dz2              4.698897       0.199146
                                                         2.968840      -0.300081
                                                         1.627478       0.179120
                                                         0.758189      -0.316813
                                                         0.320142      -0.081135
                                                         0.120196      -0.010480
                                                         0.037579      -0.002330

                          1      10    6dx2              4.698897       0.935799
                                                         2.968840      -1.015984
                                                         1.627478       0.143825
                                                         0.758189      -0.466083
                                                         0.320142       0.027997
                                                         0.120196       0.046611
                                                         0.037579      -0.002351
                          1      10    6dxy              4.698897       1.620852
                                                         2.968840      -1.759737
                                                         1.627478       0.249112
                                                         0.758189      -0.807279
                                                         0.320142       0.048493
                                                         0.120196       0.080733
                                                         0.037579      -0.004072
                          1      10    6dxz              4.698897       1.620852
                                                         2.968840      -1.759737
                                                         1.627478       0.249112
                                                         0.758189      -0.807279
                                                         0.320142       0.048493
                                                         0.120196       0.080733
                                                         0.037579      -0.004072
                          1      10    6dy2              4.698897       0.935799
                                                         2.968840      -1.015984
                                                         1.627478       0.143825
                                                         0.758189      -0.466083
                                                         0.320142       0.027997
                                                         0.120196       0.046611
                                                         0.037579      -0.002351
                          1      10    6dyz              4.698897       1.620852
                                                         2.968840      -1.759737
                                                         1.627478       0.249112
                                                         0.758189      -0.807279
                                                         0.320142       0.048493
                                                         0.120196       0.080733
                                                         0.037579      -0.004072
                          1      10    6dz2              4.698897       0.935799
                                                         2.968840      -1.015984
                                                         1.627478       0.143825
                                                         0.758189      -0.466083
                                                         0.320142       0.027997
                                                         0.120196       0.046611
                                                         0.037579      -0.002351

                          1      11    5fx3              4.698897      -3.402104
                                                         2.968840      -0.738949
                                                         1.627478      -0.032877
                                                         0.758189      -0.157249
                                                         0.320142      -0.058658
                                                         0.120196      -0.005097
                                                         0.037579      -0.000104
                          1      11    5fx2y             4.698897      -7.607335
                                                         2.968840      -1.652341
                                                         1.627478      -0.073514
                                                         0.758189      -0.351620
                                                         0.320142      -0.131164
                                                         0.120196      -0.011398
                                                         0.037579      -0.000233
                          1      11    5fx2z             4.698897      -7.607335
                                                         2.968840      -1.652341
                                                         1.627478      -0.073514
                                                         0.758189      -0.351620
                                                         0.320142      -0.131164
                                                         0.120196      -0.011398
                                                         0.037579      -0.000233
                          1      11    5fxy2             4.698897      -7.607335
                                                         2.968840      -1.652341
                                                         1.627478      -0.073514
                                                         0.758189      -0.351620
                                                         0.320142      -0.131164
                                                         0.120196      -0.011398
                                                         0.037579      -0.000233
                          1      11    5fxyz             4.698897     -13.176291
                                                         2.968840      -2.861939
                                                         1.627478      -0.127331
                                                         0.758189      -0.609024
                                                         0.320142      -0.227182
                                                         0.120196      -0.019742
                                                         0.037579      -0.000404
                          1      11    5fxz2             4.698897      -7.607335
                                                         2.968840      -1.652341
                                                         1.627478      -0.073514
                                                         0.758189      -0.351620
                                                         0.320142      -0.131164
                                                         0.120196      -0.011398
                                                         0.037579      -0.000233
                          1      11    5fy3              4.698897      -3.402104
                                                         2.968840      -0.738949
                                                         1.627478      -0.032877
                                                         0.758189      -0.157249
                                                         0.320142      -0.058658
                                                         0.120196      -0.005097
                                                         0.037579      -0.000104
                          1      11    5fy2z             4.698897      -7.607335
                                                         2.968840      -1.652341
                                                         1.627478      -0.073514
                                                         0.758189      -0.351620
                                                         0.320142      -0.131164
                                                         0.120196      -0.011398
                                                         0.037579      -0.000233
                          1      11    5fyz2             4.698897      -7.607335
                                                         2.968840      -1.652341
                                                         1.627478      -0.073514
                                                         0.758189      -0.351620
                                                         0.320142      -0.131164
                                                         0.120196      -0.011398
                                                         0.037579      -0.000233
                          1      11    5fz3              4.698897      -3.402104
                                                         2.968840      -0.738949
                                                         1.627478      -0.032877
                                                         0.758189      -0.157249
                                                         0.320142      -0.058658
                                                         0.120196      -0.005097
                                                         0.037579      -0.000104

                          1      12    6fx3              4.698897      14.640974
                                                         2.968840       4.162688
                                                         1.627478       1.491899
                                                         0.758189      -0.036095
                                                         0.320142      -0.044070
                                                         0.120196       0.003627
                                                         0.037579       0.000458
                          1      12    6fx2y             4.698897      32.738212
                                                         2.968840       9.308053
                                                         1.627478       3.335987
                                                         0.758189      -0.080710
                                                         0.320142      -0.098543
                                                         0.120196       0.008111
                                                         0.037579       0.001023
                          1      12    6fx2z             4.698897      32.738212
                                                         2.968840       9.308053
                                                         1.627478       3.335987
                                                         0.758189      -0.080710
                                                         0.320142      -0.098543
                                                         0.120196       0.008111
                                                         0.037579       0.001023
                          1      12    6fxy2             4.698897      32.738212
                                                         2.968840       9.308053
                                                         1.627478       3.335987
                                                         0.758189      -0.080710
                                                         0.320142      -0.098543
                                                         0.120196       0.008111
                                                         0.037579       0.001023
                          1      12    6fxyz             4.698897      56.704247
                                                         2.968840      16.122021
                                                         1.627478       5.778098
                                                         0.758189      -0.139794
                                                         0.320142      -0.170682
                                                         0.120196       0.014049
                                                         0.037579       0.001772
                          1      12    6fxz2             4.698897      32.738212
                                                         2.968840       9.308053
                                                         1.627478       3.335987
                                                         0.758189      -0.080710
                                                         0.320142      -0.098543
                                                         0.120196       0.008111
                                                         0.037579       0.001023
                          1      12    6fy3              4.698897      14.640974
                                                         2.968840       4.162688
                                                         1.627478       1.491899
                                                         0.758189      -0.036095
                                                         0.320142      -0.044070
                                                         0.120196       0.003627
                                                         0.037579       0.000458
                          1      12    6fy2z             4.698897      32.738212
                                                         2.968840       9.308053
                                                         1.627478       3.335987
                                                         0.758189      -0.080710
                                                         0.320142      -0.098543
                                                         0.120196       0.008111
                                                         0.037579       0.001023
                          1      12    6fyz2             4.698897      32.738212
                                                         2.968840       9.308053
                                                         1.627478       3.335987
                                                         0.758189      -0.080710
                                                         0.320142      -0.098543
                                                         0.120196       0.008111
                                                         0.037579       0.001023
                          1      12    6fz3              4.698897      14.640974
                                                         2.968840       4.162688
                                                         1.627478       1.491899
                                                         0.758189      -0.036095
                                                         0.320142      -0.044070
                                                         0.120196       0.003627
                                                         0.037579       0.000458

                          1      13    7fx3              4.698897     -15.177158
                                                         2.968840      -4.357617
                                                         1.627478      -1.133091
                                                         0.758189      -0.205377
                                                         0.320142      -0.009992
                                                         0.120196       0.003199
                                                         0.037579       0.000232
                          1      13    7fx2y             4.698897     -33.937157
                                                         2.968840      -9.743927
                                                         1.627478      -2.533668
                                                         0.758189      -0.459237
                                                         0.320142      -0.022343
                                                         0.120196       0.007152
                                                         0.037579       0.000519
                          1      13    7fx2z             4.698897     -33.937157
                                                         2.968840      -9.743927
                                                         1.627478      -2.533668
                                                         0.758189      -0.459237
                                                         0.320142      -0.022343
                                                         0.120196       0.007152
                                                         0.037579       0.000519
                          1      13    7fxy2             4.698897     -33.937157
                                                         2.968840      -9.743927
                                                         1.627478      -2.533668
                                                         0.758189      -0.459237
                                                         0.320142      -0.022343
                                                         0.120196       0.007152
                                                         0.037579       0.000519
                          1      13    7fxyz             4.698897     -58.780880
                                                         2.968840     -16.876976
                                                         1.627478      -4.388442
                                                         0.758189      -0.795422
                                                         0.320142      -0.038699
                                                         0.120196       0.012388
                                                         0.037579       0.000898
                          1      13    7fxz2             4.698897     -33.937157
                                                         2.968840      -9.743927
                                                         1.627478      -2.533668
                                                         0.758189      -0.459237
                                                         0.320142      -0.022343
                                                         0.120196       0.007152
                                                         0.037579       0.000519
                          1      13    7fy3              4.698897     -15.177158
                                                         2.968840      -4.357617
                                                         1.627478      -1.133091
                                                         0.758189      -0.205377
                                                         0.320142      -0.009992
                                                         0.120196       0.003199
                                                         0.037579       0.000232
                          1      13    7fy2z             4.698897     -33.937157
                                                         2.968840      -9.743927
                                                         1.627478      -2.533668
                                                         0.758189      -0.459237
                                                         0.320142      -0.022343
                                                         0.120196       0.007152
                                                         0.037579       0.000519
                          1      13    7fyz2             4.698897     -33.937157
                                                         2.968840      -9.743927
                                                         1.627478      -2.533668
                                                         0.758189      -0.459237
                                                         0.320142      -0.022343
                                                         0.120196       0.007152
                                                         0.037579       0.000519
                          1      13    7fz3              4.698897     -15.177158
                                                         2.968840      -4.357617
                                                         1.627478      -1.133091
                                                         0.758189      -0.205377
                                                         0.320142      -0.009992
                                                         0.120196       0.003199
                                                         0.037579       0.000232

                          1      14    6gx4              4.698897      -0.287804
                                                         2.968840       0.205460
                                                         1.627478      -0.094824
                                                         0.758189       0.081770
                                                         0.320142       0.025209
                                                         0.120196       0.001562
                                                         0.037579       0.000023
                          1      14    6gx3y             4.698897      -0.761458
                                                         2.968840       0.543596
                                                         1.627478      -0.250880
                                                         0.758189       0.216343
                                                         0.320142       0.066697
                                                         0.120196       0.004133
                                                         0.037579       0.000060
                          1      14    6gx3z             4.698897      -0.761458
                                                         2.968840       0.543596
                                                         1.627478      -0.250880
                                                         0.758189       0.216343
                                                         0.320142       0.066697
                                                         0.120196       0.004133
                                                         0.037579       0.000060
                          1      14    6gx2y2            4.698897      -0.983038
                                                         2.968840       0.701779
                                                         1.627478      -0.323885
                                                         0.758189       0.279297
                                                         0.320142       0.086106
                                                         0.120196       0.005335
                                                         0.037579       0.000077
                          1      14    6gx2yz            4.698897      -1.702671
                                                         2.968840       1.215517
                                                         1.627478      -0.560984
                                                         0.758189       0.483757
                                                         0.320142       0.149139
                                                         0.120196       0.009241
                                                         0.037579       0.000133
                          1      14    6gx2z2            4.698897      -0.983038
                                                         2.968840       0.701779
                                                         1.627478      -0.323885
                                                         0.758189       0.279297
                                                         0.320142       0.086106
                                                         0.120196       0.005335
                                                         0.037579       0.000077
                          1      14    6gxy3             4.698897      -0.761458
                                                         2.968840       0.543596
                                                         1.627478      -0.250880
                                                         0.758189       0.216343
                                                         0.320142       0.066697
                                                         0.120196       0.004133
                                                         0.037579       0.000060
                          1      14    6gxy2z            4.698897      -1.702671
                                                         2.968840       1.215517
                                                         1.627478      -0.560984
                                                         0.758189       0.483757
                                                         0.320142       0.149139
                                                         0.120196       0.009241
                                                         0.037579       0.000133
                          1      14    6gxyz2            4.698897      -1.702671
                                                         2.968840       1.215517
                                                         1.627478      -0.560984
                                                         0.758189       0.483757
                                                         0.320142       0.149139
                                                         0.120196       0.009241
                                                         0.037579       0.000133
                          1      14    6gxz3             4.698897      -0.761458
                                                         2.968840       0.543596
                                                         1.627478      -0.250880
                                                         0.758189       0.216343
                                                         0.320142       0.066697
                                                         0.120196       0.004133
                                                         0.037579       0.000060
                          1      14    6gy4              4.698897      -0.287804
                                                         2.968840       0.205460
                                                         1.627478      -0.094824
                                                         0.758189       0.081770
                                                         0.320142       0.025209
                                                         0.120196       0.001562
                                                         0.037579       0.000023
                          1      14    6gy3z             4.698897      -0.761458
                                                         2.968840       0.543596
                                                         1.627478      -0.250880
                                                         0.758189       0.216343
                                                         0.320142       0.066697
                                                         0.120196       0.004133
                                                         0.037579       0.000060
                          1      14    6gy2z2            4.698897      -0.983038
                                                         2.968840       0.701779
                                                         1.627478      -0.323885
                                                         0.758189       0.279297
                                                         0.320142       0.086106
                                                         0.120196       0.005335
                                                         0.037579       0.000077
                          1      14    6gyz3             4.698897      -0.761458
                                                         2.968840       0.543596
                                                         1.627478      -0.250880
                                                         0.758189       0.216343
                                                         0.320142       0.066697
                                                         0.120196       0.004133
                                                         0.037579       0.000060
                          1      14    6gz4              4.698897      -0.287804
                                                         2.968840       0.205460
                                                         1.627478      -0.094824
                                                         0.758189       0.081770
                                                         0.320142       0.025209
                                                         0.120196       0.001562
                                                         0.037579       0.000023

     Auxiliary Fit Basis Set                                               FIT14

       Number of orbital shell sets:                                          14
       Number of orbital shells:                                              14
       Number of primitive Cartesian functions:                               14
       Number of Cartesian basis functions:                                   76
       Number of spherical basis functions:                                   58
       Norm type:                                                              2

       Normalised Cartesian orbitals:

                        Set   Shell   Orbital            Exponent    Coefficient

                          1       1    1s                0.058810       0.085114

                          2       1    1s                2.382396       1.366692

                          3       1    1s                0.425355       0.375382

                          4       1    1s                2.977464       1.615455

                          5       1    1px               0.416517       0.476959
                          5       1    1py               0.416517       0.476959
                          5       1    1pz               0.416517       0.476959

                          6       1    1px               4.802029      10.132603
                          6       1    1py               4.802029      10.132603
                          6       1    1pz               4.802029      10.132603

                          7       1    1px               5.490125      11.978925
                          7       1    1py               5.490125      11.978925
                          7       1    1pz               5.490125      11.978925

                          8       1    1dx2              0.041160       0.006191
                          8       1    1dxy              0.041160       0.010722
                          8       1    1dxz              0.041160       0.010722
                          8       1    1dy2              0.041160       0.006191
                          8       1    1dyz              0.041160       0.010722
                          8       1    1dz2              0.041160       0.006191

                          9       1    1dx2              0.140311       0.052945
                          9       1    1dxy              0.140311       0.091703
                          9       1    1dxz              0.140311       0.091703
                          9       1    1dy2              0.140311       0.052945
                          9       1    1dyz              0.140311       0.091703
                          9       1    1dz2              0.140311       0.052945

                         10       1    1dx2              0.448761       0.404983
                         10       1    1dxy              0.448761       0.701451
                         10       1    1dxz              0.448761       0.701451
                         10       1    1dy2              0.448761       0.404983
                         10       1    1dyz              0.448761       0.701451
                         10       1    1dz2              0.448761       0.404983

                         11       1    1fx3              0.272889       0.079236
                         11       1    1fx2y             0.272889       0.177177
                         11       1    1fx2z             0.272889       0.177177
                         11       1    1fxy2             0.272889       0.177177
                         11       1    1fxyz             0.272889       0.306880
                         11       1    1fxz2             0.272889       0.177177
                         11       1    1fy3              0.272889       0.079236
                         11       1    1fy2z             0.272889       0.177177
                         11       1    1fyz2             0.272889       0.177177
                         11       1    1fz3              0.272889       0.079236

                         12       1    1fx3              1.105071       1.843242
                         12       1    1fx2y             1.105071       4.121614
                         12       1    1fx2z             1.105071       4.121614
                         12       1    1fxy2             1.105071       4.121614
                         12       1    1fxyz             1.105071       7.138844
                         12       1    1fxz2             1.105071       4.121614
                         12       1    1fy3              1.105071       1.843242
                         12       1    1fy2z             1.105071       4.121614
                         12       1    1fyz2             1.105071       4.121614
                         12       1    1fz3              1.105071       1.843242

                         13       1    1fx3              3.772707      29.202750
                         13       1    1fx2y             3.772707      65.299334
                         13       1    1fx2z             3.772707      65.299334
                         13       1    1fxy2             3.772707      65.299334
                         13       1    1fxyz             3.772707     113.101763
                         13       1    1fxz2             3.772707      65.299334
                         13       1    1fy3              3.772707      29.202750
                         13       1    1fy2z             3.772707      65.299334
                         13       1    1fyz2             3.772707      65.299334
                         13       1    1fz3              3.772707      29.202750

                         14       1    1gx4              0.176064       0.009376
                         14       1    1gx3y             0.176064       0.024807
                         14       1    1gx3z             0.176064       0.024807
                         14       1    1gx2y2            0.176064       0.032026
                         14       1    1gx2yz            0.176064       0.055471
                         14       1    1gx2z2            0.176064       0.032026
                         14       1    1gxy3             0.176064       0.024807
                         14       1    1gxy2z            0.176064       0.055471
                         14       1    1gxyz2            0.176064       0.055471
                         14       1    1gxz3             0.176064       0.024807
                         14       1    1gy4              0.176064       0.009376
                         14       1    1gy3z             0.176064       0.024807
                         14       1    1gy2z2            0.176064       0.032026
                         14       1    1gyz3             0.176064       0.024807
                         14       1    1gz4              0.176064       0.009376

     GTH Potential information for                                   GTH-PBE-q14

       Description:                       Goedecker-Teter-Hutter pseudopotential
                                           Goedecker et al., PRB 54, 1703 (1996)
                                          Hartwigsen et al., PRB 58, 3641 (1998)
                                                      Krack, TCA 114, 145 (2005)

       Gaussian exponent of the core charge distribution:               1.780578
       Electronic configuration (s p d ...):                       4   6   0   4

       Parameters of the local part of the GTH pseudopotential:

                          rloc        C1          C2          C3          C4
                        0.529913   17.806463   -0.320955

       Parameters of the non-local part of the GTH pseudopotential:

                   l      r(l)      h(i,j,l)

                   0    0.501140   -1.364439    2.464749
                                    2.464749   -3.181977
                   1    0.500391   -1.559426    1.539392
                                    1.539392   -1.821434
                   2    0.334318   -1.700644
                   3    0.295675  -18.643271

  3. Atomic kind: F                                     Number of atoms:      64

     Orbital Basis Set                                        TZVP-MOLOPT-GTH-q7

       Number of orbital shell sets:                                           1
       Number of orbital shells:                                               7
       Number of primitive Cartesian functions:                                7
[...]
 flops    58 x    58 x    32           5213607936     100.0%      0.0%      0.0%
 flops    58 x     3 x    17           5344277760     100.0%      0.0%      0.0%
 flops    17 x     3 x    58           5344277760     100.0%      0.0%      0.0%
 flops    32 x     3 x    69           7729916544     100.0%      0.0%      0.0%
 flops    17 x     4 x    17           9091153920     100.0%      0.0%      0.0%
 flops   138 x     3 x    69          11476219104     100.0%      0.0%      0.0%
 flops   139 x     3 x    69          11559380112     100.0%      0.0%      0.0%
 flops    18 x    58 x    32          12363632640     100.0%      0.0%      0.0%
 flops    58 x    18 x    32          13187874816     100.0%      0.0%      0.0%
 flops    36 x    32 x    70          15072583680     100.0%      0.0%      0.0%
 flops   138 x    32 x    53          16334678016     100.0%      0.0%      0.0%
 flops   139 x    32 x    53          16453045248     100.0%      0.0%      0.0%
 flops    25 x    58 x    32          16536960000     100.0%      0.0%      0.0%
 flops    12 x    58 x    32          16933847040     100.0%      0.0%      0.0%
 flops    58 x    12 x    32          16933847040     100.0%      0.0%      0.0%
 flops    58 x    25 x    32          17639424000     100.0%      0.0%      0.0%
 flops    17 x    58 x    32          24910430208     100.0%      0.0%      0.0%
 flops    58 x    17 x    32          24910430208     100.0%      0.0%      0.0%
 flops    36 x    32 x    32          25310527488     100.0%      0.0%      0.0%
 flops    18 x     3 x    18          26369417160     100.0%      0.0%      0.0%
 flops   140 x    32 x    70          32830156800     100.0%      0.0%      0.0%
 flops   145 x    32 x    70          34002662400     100.0%      0.0%      0.0%
 flops    36 x    32 x    69          34666942464     100.0%      0.0%      0.0%
 flops   155 x    32 x    70          36347673600     100.0%      0.0%      0.0%
 flops   156 x    32 x    70          36582174720     100.0%      0.0%      0.0%
 flops    32 x    32 x    53          41666568192     100.0%      0.0%      0.0%
 flops    58 x    32 x    18          48219770880     100.0%      0.0%      0.0%
 flops    18 x    32 x    58          48219770880     100.0%      0.0%      0.0%
 flops    18 x     3 x    17          51415637760     100.0%      0.0%      0.0%
 flops    17 x     3 x    18          51415637760     100.0%      0.0%      0.0%
 flops   140 x    32 x    69          75509360640     100.0%      0.0%      0.0%
 flops   145 x    32 x    69          78206123520     100.0%      0.0%      0.0%
 flops   155 x    32 x    69          83599649280     100.0%      0.0%      0.0%
 flops   156 x    32 x    69          84139001856     100.0%      0.0%      0.0%
 flops    58 x    32 x    17          94019911680     100.0%      0.0%      0.0%
 flops    17 x    32 x    58          94019911680     100.0%      0.0%      0.0%
 flops    17 x     3 x    17         100251279360     100.0%      0.0%      0.0%
 flops    18 x    18 x    32         126876450816     100.0%      0.0%      0.0%
 flops   138 x    32 x    70         129444618240     100.0%      0.0%      0.0%
 flops   139 x    32 x    70         130382622720     100.0%      0.0%      0.0%
 flops   140 x    32 x    32         137075097600     100.0%      0.0%      0.0%
 flops   145 x    32 x    32         141970636800     100.0%      0.0%      0.0%
 flops   155 x    32 x    32         151761715200     100.0%      0.0%      0.0%
 flops   156 x    32 x    32         152740823040     100.0%      0.0%      0.0%
 flops    25 x    12 x    32         226271232000     100.0%      0.0%      0.0%
 flops    12 x    25 x    32         226271232000     100.0%      0.0%      0.0%
 flops    12 x    12 x    32         227731046400     100.0%      0.0%      0.0%
 flops    25 x    25 x    32         235699200000     100.0%      0.0%      0.0%
 flops    18 x    17 x    32         239655518208     100.0%      0.0%      0.0%
 flops    17 x    18 x    32         239655518208     100.0%      0.0%      0.0%
 flops   138 x    32 x    69         297722621952     100.0%      0.0%      0.0%
 flops   139 x    32 x    69         299880032256     100.0%      0.0%      0.0%
 flops    32 x    32 x    70         330187898880     100.0%      0.0%      0.0%
 flops    18 x    32 x    18         463907450880     100.0%      0.0%      0.0%
 flops    17 x    17 x    32         474586644480     100.0%      0.0%      0.0%
 flops    32 x    32 x    32         516213964800     100.0%      0.0%      0.0%
 flops   138 x    32 x    32         540467527680     100.0%      0.0%      0.0%
 flops   139 x    32 x    32         544383959040     100.0%      0.0%      0.0%
 flops    32 x    32 x    69         759432167424     100.0%      0.0%      0.0%
 flops    18 x    32 x    17         904536391680     100.0%      0.0%      0.0%
 flops    17 x    32 x    18         904536391680     100.0%      0.0%      0.0%
 flops    17 x    32 x    17        1763683860480     100.0%      0.0%      0.0%
 flops inhomo. stacks                506503218840     100.0%      0.0%      0.0%
 flops total                        12.151534E+12     100.0%      0.0%      0.0%
 flops max/rank                    115.851970E+09     100.0%      0.0%      0.0%
 matmuls inhomo. stacks                   1888416     100.0%      0.0%      0.0%
 matmuls total                          502684178     100.0%      0.0%      0.0%
 number of processed stacks             105345323     100.0%      0.0%      0.0%
 average stack size                                     4.8       0.0       0.0
 marketing flops                    14.277650E+12
 -------------------------------------------------------------------------------
 # multiplications                         115646
 max memory usage/rank             829.034496E+06
 # max total images/rank                        2
 # max 3D layers                                1
 # MPI messages exchanged              2298117312
 MPI messages size (bytes):
  total size                        14.134237E+12
  min size                           0.000000E+00
  max size                         114.816000E+03
  average size                       6.150355E+03
 MPI breakdown and total messages size (bytes):
             size <=      128          1944381774                174029224
       128 < size <=     8192            95328744             518936258552
      8192 < size <=    32768            95214618            1729980884232
     32768 < size <=   131072           163192176           11879970822144
    131072 < size <=  4194304                   0                        0
   4194304 < size <= 16777216                   0                        0
  16777216 < size                               0                        0
 -------------------------------------------------------------------------------

 *** WARNING in dbcsr/mm/dbcsr_mm.F:268 :: Using a non-square number of ***
 *** MPI ranks might lead to poor performance.                          ***
 *** Used ranks: 288                                                    ***
 *** Suggested: 289 576                                                 ***

 -------------------------------------------------------------------------------
 
 MEMORY| Estimated peak process memory [MiB]                                 791

 -------------------------------------------------------------------------------
 ----                             MULTIGRID INFO                            ----
 -------------------------------------------------------------------------------
 count for grid        1:       39293904          cutoff [a.u.]          325.00
 count for grid        2:       48460634          cutoff [a.u.]          108.33
 count for grid        3:       75228557          cutoff [a.u.]           36.11
 count for grid        4:       50047681          cutoff [a.u.]           12.04
 count for grid        5:       32804353          cutoff [a.u.]            4.01
 total gridlevel count  :      245835129

 -------------------------------------------------------------------------------
 -                                                                             -
 -                         MESSAGE PASSING PERFORMANCE                         -
 -                                                                             -
 -------------------------------------------------------------------------------

 ROUTINE             CALLS      AVE VOLUME [Bytes]
 MP_Group            10244
 MP_Bcast            92398                  26973.
 MP_Allreduce       812291                     37.
 MP_Sync             34230
 MP_Alltoall        510152                 274750.
 MP_ISendRecv      4997818                  62433.
 MP_Wait          29076554
 MP_comm_split        5184
 MP_ISend         16756208                   3621.
 MP_IRecv         16907946                   3555.
 MP_Recv              1575                 224777.
 MP_Memory         6521114
 -------------------------------------------------------------------------------


 -------------------------------------------------------------------------------
 -                                                                             -
 -                           R E F E R E N C E S                               -
 -                                                                             -
 -------------------------------------------------------------------------------
 
 CP2K version 7.0 (Development Version), the CP2K developers group (2018).
 CP2K is freely available from https://www.cp2k.org/ .

 Schuett, Ole; Messmer, Peter; Hutter, Juerg; VandeVondele, Joost. 
 Electronic Structure Calculations on Graphics Processing Units, John Wiley & Sons, Ltd, 173-190 (2016). 
 GPU-Accelerated Sparse Matrix-Matrix Multiplication for Linear Scaling Density Functional Theory.
 https://dx.doi.org/10.1002/9781118670712.ch8


 Borstnik, U; VandeVondele, J; Weber, V; Hutter, J. 
 PARALLEL COMPUTING, 40 (5-6), 47-58 (2014). 
 Sparse matrix multiplication: The distributed block-compressed sparse
 row library.
 https://dx.doi.org/10.1016/j.parco.2014.03.012


 Hutter, J; Iannuzzi, M; Schiffmann, F; VandeVondele, J. 
 WILEY INTERDISCIPLINARY REVIEWS-COMPUTATIONAL MOLECULAR SCIENCE, 4 (1), 15-25 (2014). 
 CP2K: atomistic simulations of condensed matter systems.
 https://dx.doi.org/10.1002/wcms.1159


 Guidon, M; Hutter, J; VandeVondele, J. 
 JOURNAL OF CHEMICAL THEORY AND COMPUTATION, 6 (8), 2348-2364 (2010). 
 Auxiliary Density Matrix Methods for Hartree-Fock Exchange Calculations.
 https://dx.doi.org/10.1021/ct1002225


 Guidon, M; Hutter, J; VandeVondele, J. 
 JOURNAL OF CHEMICAL THEORY AND COMPUTATION, 5 (11), 3010-3021 (2009). 
 Robust Periodic Hartree-Fock Exchange for Large-Scale Simulations Using
 Gaussian Basis Sets.
 https://dx.doi.org/10.1021/ct900494g


 Guidon, M; Schiffmann, F; Hutter, J; VandeVondele, J. 
 JOURNAL OF CHEMICAL PHYSICS, 128 (21), 214104 (2008). 
 Ab initio molecular dynamics using hybrid density functionals.
 https://dx.doi.org/10.1063/1.2931945


 VandeVondele, J; Hutter, J. 
 JOURNAL OF CHEMICAL PHYSICS, 127 (11), 114105 (2007). 
 Gaussian basis sets for accurate calculations on molecular systems in
 gas and condensed phases.
 https://dx.doi.org/10.1063/1.2770708


 Krack, M. 
 THEORETICAL CHEMISTRY ACCOUNTS, 114 (1-3), 145-152 (2005). 
 Pseudopotentials for H to Kr optimized for gradient-corrected
 exchange-correlation functionals.
 https://dx.doi.org/10.1007/s00214-005-0655-y


 VandeVondele, J; Krack, M; Mohamed, F; Parrinello, M; Chassaing, T;
 Hutter, J. COMPUTER PHYSICS COMMUNICATIONS, 167 (2), 103-128 (2005). 
 QUICKSTEP: Fast and accurate density functional calculations using a
 mixed Gaussian and plane waves approach.
 https://dx.doi.org/10.1016/j.cpc.2004.12.014


 Frigo, M; Johnson, SG. 
 PROCEEDINGS OF THE IEEE, 93 (2), 216-231 (2005). 
 The design and implementation of FFTW3.
 https://dx.doi.org/10.1109/JPROC.2004.840301


 Heyd, J; Scuseria, GE. 
 JOURNAL OF CHEMICAL PHYSICS, 120 (16), 7274-7280 (2004). 
 Assessment and validation of a screened Coulomb hybrid density
 functional.
 https://dx.doi.org/10.1063/1.1668634


 Kolafa, J. 
 JOURNAL OF COMPUTATIONAL CHEMISTRY, 25 (3), 335-342 (2004). 
 Time-reversible always stable predictor-corrector method for molecular dynamics of polarizable molecules.
 https://dx.doi.org/10.1002/jcc.10385


 VandeVondele, J; Hutter, J. 
 JOURNAL OF CHEMICAL PHYSICS, 118 (10), 4365-4369 (2003). 
 An efficient orbital transformation method for electronic structure
 calculations.
 https://dx.doi.org/10.1063/1.1543154


 Hartwigsen, C; Goedecker, S; Hutter, J. 
 PHYSICAL REVIEW B, 58 (7), 3641-3662 (1998). 
 Relativistic separable dual-space Gaussian pseudopotentials from H to Rn.
 https://dx.doi.org/10.1103/PhysRevB.58.3641


 Lippert, G; Hutter, J; Parrinello, M. 
 MOLECULAR PHYSICS, 92 (3), 477-487 (1997). 
 A hybrid Gaussian and plane wave density functional scheme.
 https://dx.doi.org/10.1080/002689797170220


 Perdew, JP; Burke, K; Ernzerhof, M. 
 PHYSICAL REVIEW LETTERS, 77 (18), 3865-3868 (1996). 
 Generalized gradient approximation made simple.
 https://dx.doi.org/10.1103/PhysRevLett.77.3865


 Goedecker, S; Teter, M; Hutter, J. 
 PHYSICAL REVIEW B, 54 (3), 1703-1710 (1996). 
 Separable dual-space Gaussian pseudopotentials.
 https://dx.doi.org/10.1103/PhysRevB.54.1703


 BYRD, RH; LU, PH; NOCEDAL, J; ZHU, CY. 
 SIAM JOURNAL ON SCIENTIFIC COMPUTING, 16 (5), 1190-1208 (1995). 
 A LIMITED MEMORY ALGORITHM FOR BOUND CONSTRAINED OPTIMIZATION.
 https://dx.doi.org/10.1137/0916069


 -------------------------------------------------------------------------------
 -                                                                             -
 -                                T I M I N G                                  -
 -                                                                             -
 -------------------------------------------------------------------------------
 SUBROUTINE                       CALLS  ASD         SELF TIME        TOTAL TIME
                                MAXIMUM       AVERAGE  MAXIMUM  AVERAGE  MAXIMUM
 CP2K                                 1  1.0     0.46     0.50 86667.57 86667.88
 cp_geo_opt                           1  2.0     0.03     0.03 86656.80 86657.12
 geoopt_lbfgs                         1  3.0     0.03     0.20 86656.77 86657.09
 cp_eval_at                          19  4.9     0.33     0.38 86654.70 86655.86
 cp_opt_gopt_step                    11  4.0     0.07     0.19 85244.79 85244.92
 qs_forces                           18  6.0     0.35     0.62 85242.35 85243.18
 qs_energies                         19  6.9     0.19     0.25 54033.28 54035.05
 rebuild_ks_matrix                  495 10.9     0.00     0.01 52635.80 52640.70
 qs_ks_build_kohn_sham_matrix       495 11.9     0.52     0.67 52635.79 52640.70
 scf_env_do_scf                      19  7.9     0.09     0.11 38789.60 38790.67
 hfx_ks_matrix                      495 12.9     0.26     0.31 36568.09 36571.75
 scf_env_do_scf_inner_loop          477  9.0     0.10     0.19 29835.32 29837.62
 qs_ks_update_qs_env                496 10.0     0.01     0.02 27693.71 27698.09
 qs_ks_update_qs_env_forces          18  7.0     0.00     0.01 24949.64 24950.11
 derivatives_four_center             18 11.0     0.09     0.29 23453.79 23454.35
 derivatives_four_center_main        18 12.0     0.15     0.31 23437.41 23437.85
 mp_waitall_1                   ******* 16.3 17363.90 22673.98 17363.90 22673.98
 derivatives_four_center_bin       1185 13.0 13986.85 22020.24 13986.85 22020.24
 rs_pw_transfer                   15324 14.9     0.19     0.30 14810.05 20206.67
 rs_pw_transfer_RS2PW_330          2020 15.4    63.91    93.18 12644.24 18204.45
 mp_sum_lv                          289  4.5  9453.13 14558.83  9453.13 14558.83
 calculate_rho_elec                1982 12.4  4637.88 10464.02 14361.43 14387.22
 integrate_four_center              495 13.9     9.43    17.15 13113.67 13116.87
 density_rs2pw                     1982 13.4     0.12     0.25  9581.75 13053.14
 integrate_four_center_main         495 14.9     0.18     0.48  8641.22 12009.83
 integrate_four_center_bin        32135 15.9  8641.04 12009.64  8641.04 12009.64
 sum_up_and_integrate               266 12.8     0.41     0.70  8222.90  9025.44
 integrate_v_rspace                1064 13.8  2984.21  6796.24  8222.43  9024.89
 init_scf_loop                       19  8.9     0.12     0.16  8951.72  8952.82
 qs_rho_update_rho                  496 10.0     0.01     0.05  8687.87  8710.44
 scf_post_calculation_gpw            19  7.9     0.08     0.19  8225.01  8226.21
 make_lumo                           19  8.9     0.00     0.01  8042.00  8043.20
 ot_eigensolver                      38  9.9     0.11     0.15  8033.28  8034.75
 dbcsr_multiply_generic          115646 13.1     5.70     7.01  7746.29  7857.52
 mp_sync                          34230 19.2  4484.88  7548.09  4484.88  7548.09
 build_core_hamiltonian_matrix_      18  7.0     0.01     0.03  3220.92  7544.57
 potential_pw2rs                   1064 14.8     0.12     0.22  5237.91  7131.76
 mp_sum_d                         93320 14.9  4809.59  6959.55  4809.59  6959.55
 qs_energies_init_hamiltonians       19  7.9     0.15     0.74  6622.23  6623.43
 build_core_hamiltonian_matrix       19  8.9     0.01     0.06  2703.97  6596.64
 calculate_ecore_overlap             37  8.0     0.00     0.02  4326.86  6485.07
 build_core_ppnl_forces              18  8.0  2729.42  6425.34  2729.43  6425.34
 build_core_ppnl                     19  9.9  2553.91  6262.61  2553.91  6262.61
 pw_transfer                      28683 15.0     1.24     1.54  4321.64  6228.21
 fft_wrap_pw1pw2                  27693 16.0     0.15     0.20  4320.28  6226.77
 mp_alltoall_z22v                 43202 20.1  4117.66  6025.07  4117.66  6025.07
 fft_wrap_pw1pw2_330              15509 17.1     2.92     3.89  4101.86  6009.77
 fft3d_pb                         15509 18.1    21.46    43.89  4094.94  6003.37
 admm_mo_calc_rho_aux               495 12.9     0.02     0.06  5941.35  5943.38
 qs_env_update_s_mstruct             19  8.9     0.01     0.14  3914.91  5835.64
 calculate_rho_core                  19  9.9     0.03     0.60  3913.08  5834.95
 cube_transpose_2                 14185 18.6     1.07     1.53  2317.21  5328.29
 qs_ot_get_p                       8127 11.1     0.05     0.06  4154.77  4206.98
 multiply_cannon                 115646 14.1    32.25    34.52  3589.29  3779.51
 ot_mini                           7419 11.0     0.04     0.05  3701.93  3703.65
 qs_ot_get_derivative              3986 12.2     0.14     0.17  3086.78  3096.72
 qs_scf_new_mos                     477 10.0     0.00     0.01  2682.92  2685.42
 qs_scf_loop_do_ot                  477 11.0     0.01     0.01  2682.92  2685.42
 ot_scf_mini                        477 12.0     0.03     0.04  2617.66  2619.30
 mp_sum_l                        546156 14.2  2354.41  2489.06  2354.41  2489.06
 multiply_cannon_metrocomm1     2775504 15.1     8.18     8.65  1390.01  2339.46
 multiply_cannon_metrocomm3     2775504 15.1     7.85     8.39  1174.71  2295.90
 cube_transpose_4                  6257 18.8     1.13     1.57  1581.23  2264.19
 qs_ot_p2m_diag                    5108 12.2     0.19     0.28  2111.37  2160.97
 -------------------------------------------------------------------------------

 The number of warnings for this run is : 2
 
 -------------------------------------------------------------------------------
  **** **** ******  **  PROGRAM ENDED AT                 2018-11-15 21:23:54.631
 ***** ** ***  *** **   PROGRAM RAN ON                                     sm113
 **    ****   ******    PROGRAM RAN BY                                    npopov
 ***** **    ** ** **   PROGRAM PROCESS ID                                 24082
  **** **  *******  **  PROGRAM STOPPED IN     /home/npopov/nd/pstr/baf2_96_nd3p
