 DBCSR| Multiplication driver                                               BLAS
 DBCSR| Multrec recursion limit                                              512
 DBCSR| Multiplication stack size                                           1000
 DBCSR| Maximum elements for images                                    UNLIMITED
 DBCSR| Multiplicative factor virtual images                                   1
 DBCSR| Multiplication size stacks                                             3
 DBCSR| Number of 3D layers                                               SINGLE
 DBCSR| Use MPI memory allocation                                              T
 DBCSR| Use RMA algorithm                                                      F
 DBCSR| Use Communication thread                                               T
 DBCSR| Communication thread load                                             87


  **** **** ******  **  PROGRAM STARTED AT               2018-11-26 13:54:55.887
 ***** ** ***  *** **   PROGRAM STARTED ON                                 sm113
 **    ****   ******    PROGRAM STARTED BY                                npopov
 ***** **    ** ** **   PROGRAM PROCESS ID                                 34377
  **** **  *******  **  PROGRAM STARTED IN /home/npopov/nd/pstr/baf2_96_nd3_c3v_
                                           O

 CP2K| version string:                    CP2K version 7.0 (Development Version)
 CP2K| source code revision number:                                             
 CP2K| cp2kflags: libint fftw3 libxc parallel mpi2 scalapack libderiv_max_am1=5 
 CP2K|            libint_max_am=6 max_contr=4 mkl
 CP2K| is freely available from                            https://www.cp2k.org/
 CP2K| Program compiled at                          Tue Oct 23 14:28:01 +08 2018
 CP2K| Program compiled on                                                 sm101
 CP2K| Program compiled for                                                   np
 CP2K| Data directory path                      /home/npopov/progs/cp2k-git/data
 CP2K| Input file name                                                  calc.inp
 
 GLOBAL| Force Environment number                                              1
 GLOBAL| Basis set file name            /home/npopov/progs/cp2k-git/data/BASIS_A
 GLOBAL| Potential file name            /home/npopov/progs/cp2k-git/data/GTH_POT
 GLOBAL| MM Potential file name                                     MM_POTENTIAL
 GLOBAL| Coordinate file name                                      __STD_INPUT__
 GLOBAL| Method name                                                        CP2K
 GLOBAL| Project name                                                        bbi
 GLOBAL| Preferred FFT library                                             FFTW3
 GLOBAL| Preferred diagonalization lib.                                       SL
 GLOBAL| Run type                                                        GEO_OPT
 GLOBAL| All-to-all communication in single precision                          F
 GLOBAL| FFTs using library dependent lengths                                  F
 GLOBAL| Global print level                                               MEDIUM
 GLOBAL| MPI I/O enabled                                                       T
 GLOBAL| Total number of message passing processes                           288
 GLOBAL| Number of threads for this process                                    1
 GLOBAL| This output is from process                                           0
 GLOBAL| CPU model name :  Intel(R) Xeon(R) CPU E5-2695 v4 @ 2.10GHz

 MEMORY| system memory details [Kb]
 MEMORY|                        rank 0           min           max       average
 MEMORY| MemTotal            132053440     132053428     132053440     132053437
 MEMORY| MemFree             117742168     111031304     119691768     115900236
 MEMORY| Buffers                149528        110128        154544        135371
 MEMORY| Cached               10061680       8007952      16654532      11746297
 MEMORY| Slab                  2338592       2338592       2625364       2480069
 MEMORY| SReclaimable           127512        127512        404492        267062
 MEMORY| MemLikelyFree       128080888     128017568     128082916     128048967


 *** Fundamental physical constants (SI units) ***

 *** Literature: B. J. Mohr and B. N. Taylor,
 ***             CODATA recommended values of the fundamental physical
 ***             constants: 2006, Web Version 5.1
 ***             http://physics.nist.gov/constants

 Speed of light in vacuum [m/s]                             2.99792458000000E+08
 Magnetic constant or permeability of vacuum [N/A**2]       1.25663706143592E-06
 Electric constant or permittivity of vacuum [F/m]          8.85418781762039E-12
 Planck constant (h) [J*s]                                  6.62606896000000E-34
 Planck constant (h-bar) [J*s]                              1.05457162825177E-34
 Elementary charge [C]                                      1.60217648700000E-19
 Electron mass [kg]                                         9.10938215000000E-31
 Electron g factor [ ]                                     -2.00231930436220E+00
 Proton mass [kg]                                           1.67262163700000E-27
 Fine-structure constant                                    7.29735253760000E-03
 Rydberg constant [1/m]                                     1.09737315685270E+07
 Avogadro constant [1/mol]                                  6.02214179000000E+23
 Boltzmann constant [J/K]                                   1.38065040000000E-23
 Atomic mass unit [kg]                                      1.66053878200000E-27
 Bohr radius [m]                                            5.29177208590000E-11

 *** Conversion factors ***

 [u] -> [a.u.]                                              1.82288848426455E+03
 [Angstrom] -> [Bohr] = [a.u.]                              1.88972613288564E+00
 [a.u.] = [Bohr] -> [Angstrom]                              5.29177208590000E-01
 [a.u.] -> [s]                                              2.41888432650478E-17
 [a.u.] -> [fs]                                             2.41888432650478E-02
 [a.u.] -> [J]                                              4.35974393937059E-18
 [a.u.] -> [N]                                              8.23872205491840E-08
 [a.u.] -> [K]                                              3.15774647902944E+05
 [a.u.] -> [kJ/mol]                                         2.62549961709828E+03
 [a.u.] -> [kcal/mol]                                       6.27509468713739E+02
 [a.u.] -> [Pa]                                             2.94210107994716E+13
 [a.u.] -> [bar]                                            2.94210107994716E+08
 [a.u.] -> [atm]                                            2.90362800883016E+08
 [a.u.] -> [eV]                                             2.72113838565563E+01
 [a.u.] -> [Hz]                                             6.57968392072181E+15
 [a.u.] -> [1/cm] (wave numbers)                            2.19474631370540E+05
 [a.u./Bohr**2] -> [1/cm]                                   5.14048714338585E+03
 

 CELL_TOP| Volume [angstrom^3]:                                         1984.303
 CELL_TOP| Vector a [angstrom    12.566     0.000     0.000    |a| =      12.566
 CELL_TOP| Vector b [angstrom     0.000    12.566     0.000    |b| =      12.566
 CELL_TOP| Vector c [angstrom     0.000     0.000    12.566    |c| =      12.566
 CELL_TOP| Angle (b,c), alpha [degree]:                                   90.000
 CELL_TOP| Angle (a,c), beta  [degree]:                                   90.000
 CELL_TOP| Angle (a,b), gamma [degree]:                                   90.000
 CELL_TOP| Numerically orthorhombic:                                         YES
 
 GENERATE|  Preliminary Number of Bonds generated:                             0
 GENERATE|  Achieved consistency in connectivity generation.

 CELL| Volume [angstrom^3]:                                             1984.303
 CELL| Vector a [angstrom]:      12.566     0.000     0.000    |a| =      12.566
 CELL| Vector b [angstrom]:       0.000    12.566     0.000    |b| =      12.566
 CELL| Vector c [angstrom]:       0.000     0.000    12.566    |c| =      12.566
 CELL| Angle (b,c), alpha [degree]:                                       90.000
 CELL| Angle (a,c), beta  [degree]:                                       90.000
 CELL| Angle (a,b), gamma [degree]:                                       90.000
 CELL| Numerically orthorhombic:                                             YES

 CELL_REF| Volume [angstrom^3]:                                         1984.303
 CELL_REF| Vector a [angstrom    12.566     0.000     0.000    |a| =      12.566
 CELL_REF| Vector b [angstrom     0.000    12.566     0.000    |b| =      12.566
 CELL_REF| Vector c [angstrom     0.000     0.000    12.566    |c| =      12.566
 CELL_REF| Angle (b,c), alpha [degree]:                                   90.000
 CELL_REF| Angle (a,c), beta  [degree]:                                   90.000
 CELL_REF| Angle (a,b), gamma [degree]:                                   90.000
 CELL_REF| Numerically orthorhombic:                                         YES

 *******************************************************************************
 *******************************************************************************
 **                                                                           **
 **     #####                         ##              ##                      **
 **    ##   ##            ##          ##              ##                      **
 **   ##     ##                       ##            ######                    **
 **   ##     ##  ##   ##  ##   #####  ##  ##   ####   ##    #####    #####    **
 **   ##     ##  ##   ##  ##  ##      ## ##   ##      ##   ##   ##  ##   ##   **
 **   ##  ## ##  ##   ##  ##  ##      ####     ###    ##   ######   ######    **
 **    ##  ###   ##   ##  ##  ##      ## ##      ##   ##   ##       ##        **
 **     #######   #####   ##   #####  ##  ##  ####    ##    #####   ##        **
 **           ##                                                    ##        **
 **                                                                           **
 **                                                ... make the atoms dance   **
 **                                                                           **
 **            Copyright (C) by CP2K developers group (2000 - 2018)           **
 **                                                                           **
 *******************************************************************************

 DFT| Spin unrestricted (spin-polarized) Kohn-Sham calculation               UKS
 DFT| Multiplicity                                                             4
 DFT| Number of spin states                                                    2
 DFT| Charge                                                                   0
 DFT| Self-interaction correction (SIC)                                       NO
 DFT| Cutoffs: density                                              1.000000E-10
 DFT|          gradient                                             1.000000E-10
 DFT|          tau                                                  1.000000E-10
 DFT|          cutoff_smoothing_range                               0.000000E+00
 DFT| XC density smoothing                                                  NONE
 DFT| XC derivatives                                                          PW
 FUNCTIONAL| ROUTINE=NEW
 FUNCTIONAL| PBE:
 FUNCTIONAL| J.P.Perdew, K.Burke, M.Ernzerhof, Phys. Rev. Letter, vol. 77, n 18,
 FUNCTIONAL|  pp. 3865-3868, (1996)sx=0.000sc=1.000{spin polarized}             
 FUNCTIONAL| XWPBE:
 FUNCTIONAL| Jochen Heyd and Gustavo E. Scuseria, J. Chem. Phys., 120, 7274 {LSD
 FUNCTIONAL|  version}                                                          

 QS| Method:                                                                 GPW
 QS| Density plane wave grid type                        NON-SPHERICAL FULLSPACE
 QS| Number of grid levels:                                                    5
 QS| Density cutoff [a.u.]:                                                325.0
 QS| Multi grid cutoff [a.u.]: 1) grid level                               325.0
 QS|                           2) grid level                               108.3
 QS|                           3) grid level                                36.1
 QS|                           4) grid level                                12.0
 QS|                           5) grid level                                 4.0
 QS| Grid level progression factor:                                          3.0
 QS| Relative density cutoff [a.u.]:                                        30.0
 QS| Consistent realspace mapping and integration 
 QS| Interaction thresholds: eps_pgf_orb:                                1.0E-40
 QS|                         eps_filter_matrix:                          1.0E-40
 QS|                         eps_core_charge:                            1.0E-42
 QS|                         eps_rho_gspace:                             1.0E-40
 QS|                         eps_rho_rspace:                             1.0E-40
 QS|                         eps_gvg_rspace:                             1.0E-20
 QS|                         eps_ppl:                                    1.0E-02
 QS|                         eps_ppnl:                                   1.0E-22


 ATOMIC KIND INFORMATION

  1. Atomic kind: Ba                                    Number of atoms:      31

     Orbital Basis Set                                    TZVP-MOLOPT-SR-GTH-q10

       Number of orbital shell sets:                                           1
       Number of orbital shells:                                               8
       Number of primitive Cartesian functions:                                6
       Number of Cartesian basis functions:                                   19
       Number of spherical basis functions:                                   18
       Norm type:                                                              2

       Normalised Cartesian orbitals:

                        Set   Shell   Orbital            Exponent    Coefficient

                          1       1    2s                1.099107       1.203910
                                                         1.042416      -2.281486
                                                         0.923816       0.603764
                                                         0.409515       0.721861
                                                         0.166001      -0.215201
                                                         0.038868       0.055199

                          1       2    3s                1.099107       0.188406
                                                         1.042416      -0.058781
                                                         0.923816      -0.071848
                                                         0.409515      -0.182307
                                                         0.166001       0.061747
                                                         0.038868       0.058950

                          1       3    4s                1.099107       0.286284
                                                         1.042416      -0.400298
                                                         0.923816       0.316080
                                                         0.409515      -0.349929
                                                         0.166001       0.034613
                                                         0.038868      -0.041385

                          1       4    5s                1.099107       0.103627
                                                         1.042416      -0.060610
                                                         0.923816      -0.042568
                                                         0.409515       0.121559
                                                         0.166001       0.148896
                                                         0.038868      -0.009763

                          1       5    3px               1.099107       0.037255
                                                         1.042416       2.080023
                                                         0.923816      -1.867058
                                                         0.409515      -0.283953
                                                         0.166001      -0.062025
                                                         0.038868       0.012622
                          1       5    3py               1.099107       0.037255
                                                         1.042416       2.080023
                                                         0.923816      -1.867058
                                                         0.409515      -0.283953
                                                         0.166001      -0.062025
                                                         0.038868       0.012622
                          1       5    3pz               1.099107       0.037255
                                                         1.042416       2.080023
                                                         0.923816      -1.867058
                                                         0.409515      -0.283953
                                                         0.166001      -0.062025
                                                         0.038868       0.012622

                          1       6    4px               1.099107       0.476978
                                                         1.042416      -0.471787
                                                         0.923816       0.087207
                                                         0.409515      -0.129822
                                                         0.166001       0.040162
                                                         0.038868       0.022355
                          1       6    4py               1.099107       0.476978
                                                         1.042416      -0.471787
                                                         0.923816       0.087207
                                                         0.409515      -0.129822
                                                         0.166001       0.040162
                                                         0.038868       0.022355
                          1       6    4pz               1.099107       0.476978
                                                         1.042416      -0.471787
                                                         0.923816       0.087207
                                                         0.409515      -0.129822
                                                         0.166001       0.040162
                                                         0.038868       0.022355

                          1       7    5px               1.099107       0.411489
                                                         1.042416      -0.798990
                                                         0.923816      -0.292007
                                                         0.409515       0.605919
                                                         0.166001      -0.301207
                                                         0.038868       0.017943
                          1       7    5py               1.099107       0.411489
                                                         1.042416      -0.798990
                                                         0.923816      -0.292007
                                                         0.409515       0.605919
                                                         0.166001      -0.301207
                                                         0.038868       0.017943
                          1       7    5pz               1.099107       0.411489
                                                         1.042416      -0.798990
                                                         0.923816      -0.292007
                                                         0.409515       0.605919
                                                         0.166001      -0.301207
                                                         0.038868       0.017943

                          1       8    4dx2              1.099107       2.668458
                                                         1.042416      -2.755323
                                                         0.923816       0.229608
                                                         0.409515      -0.114085
                                                         0.166001      -0.042847
                                                         0.038868      -0.001242
                          1       8    4dxy              1.099107       4.621905
                                                         1.042416      -4.772360
                                                         0.923816       0.397692
                                                         0.409515      -0.197601
                                                         0.166001      -0.074213
                                                         0.038868      -0.002151
                          1       8    4dxz              1.099107       4.621905
                                                         1.042416      -4.772360
                                                         0.923816       0.397692
                                                         0.409515      -0.197601
                                                         0.166001      -0.074213
                                                         0.038868      -0.002151
                          1       8    4dy2              1.099107       2.668458
                                                         1.042416      -2.755323
                                                         0.923816       0.229608
                                                         0.409515      -0.114085
                                                         0.166001      -0.042847
                                                         0.038868      -0.001242
                          1       8    4dyz              1.099107       4.621905
                                                         1.042416      -4.772360
                                                         0.923816       0.397692
                                                         0.409515      -0.197601
                                                         0.166001      -0.074213
                                                         0.038868      -0.002151
                          1       8    4dz2              1.099107       2.668458
                                                         1.042416      -2.755323
                                                         0.923816       0.229608
                                                         0.409515      -0.114085
                                                         0.166001      -0.042847
                                                         0.038868      -0.001242

     Auxiliary Fit Basis Set                                               FIT11

       Number of orbital shell sets:                                          11
       Number of orbital shells:                                              11
       Number of primitive Cartesian functions:                               11
       Number of Cartesian basis functions:                                   26
       Number of spherical basis functions:                                   25
       Norm type:                                                              2

       Normalised Cartesian orbitals:

                        Set   Shell   Orbital            Exponent    Coefficient

                          1       1    1s                0.038875       0.062397

                          2       1    1s                0.117061       0.142633

                          3       1    1s                0.380944       0.345586

                          4       1    1s                1.814537       1.114255

                          5       1    1s                3.207545       1.708204

                          6       1    1px               0.040361       0.025786
                          6       1    1py               0.040361       0.025786
                          6       1    1pz               0.040361       0.025786

                          7       1    1px               0.173794       0.159950
                          7       1    1py               0.173794       0.159950
                          7       1    1pz               0.173794       0.159950

                          8       1    1px               0.458123       0.537240
                          8       1    1py               0.458123       0.537240
                          8       1    1pz               0.458123       0.537240

                          9       1    1px               2.159859       3.732260
                          9       1    1py               2.159859       3.732260
                          9       1    1pz               2.159859       3.732260

                         10       1    1px               3.110732       5.888686
                         10       1    1py               3.110732       5.888686
                         10       1    1pz               3.110732       5.888686

                         11       1    1dx2              0.221258       0.117485
                         11       1    1dxy              0.221258       0.203490
                         11       1    1dxz              0.221258       0.203490
                         11       1    1dy2              0.221258       0.117485
                         11       1    1dyz              0.221258       0.203490
                         11       1    1dz2              0.221258       0.117485

     GTH Potential information for                                   GTH-PBE-q10

       Description:                       Goedecker-Teter-Hutter pseudopotential
                                           Goedecker et al., PRB 54, 1703 (1996)
                                          Hartwigsen et al., PRB 58, 3641 (1998)
                                                      Krack, TCA 114, 145 (2005)

       Gaussian exponent of the core charge distribution:               1.714678
       Electronic configuration (s p d ...):                               4   6

       Parameters of the local part of the GTH pseudopotential:

                          rloc        C1          C2          C3          C4
                        0.540000   24.526781   -2.468670

       Parameters of the non-local part of the GTH pseudopotential:

                   l      r(l)      h(i,j,l)

                   0    0.492068    0.095151    1.169318
                                    1.169318   -1.509584
                   1    0.391489    0.800183   -1.616839
                                   -1.616839    1.913070
                   2    0.672173    0.388531
                   3    0.300498  -19.653795

  2. Atomic kind: Nd                                    Number of atoms:       1

     Orbital Basis Set                                    TZVP-MOLOPT-SR-GTH-q14

       Number of orbital shell sets:                                           1
       Number of orbital shells:                                              14
       Number of primitive Cartesian functions:                                7
       Number of Cartesian basis functions:                                   76
       Number of spherical basis functions:                                   58
       Norm type:                                                              2

       Normalised Cartesian orbitals:

                        Set   Shell   Orbital            Exponent    Coefficient

                          1       1    2s                4.698897       0.100862
                                                         2.968840      -0.800757
                                                         1.627478       1.228112
                                                         0.758189      -0.255133
                                                         0.320142      -0.404940
                                                         0.120196       0.075126
                                                         0.037579      -0.024513

                          1       2    3s                4.698897       0.003245
                                                         2.968840      -0.032190
                                                         1.627478      -0.031008
                                                         0.758189       0.085023
                                                         0.320142      -0.073763
                                                         0.120196       0.035261
                                                         0.037579       0.054189

                          1       3    4s                4.698897       0.256217
                                                         2.968840      -1.160927
                                                         1.627478       0.490023
                                                         0.758189       0.717389
                                                         0.320142       0.002052
                                                         0.120196      -0.106946
                                                         0.037579      -0.000152

                          1       4    5s                4.698897      -0.111353
                                                         2.968840       0.295074
                                                         1.627478       0.589506
                                                         0.758189      -0.461421
                                                         0.320142       0.033003
                                                         0.120196      -0.168442
                                                         0.037579       0.030395

                          1       5    3px               4.698897       0.199984
                                                         2.968840       0.122101
                                                         1.627478      -0.171844
                                                         0.758189      -0.385171
                                                         0.320142      -0.054020
                                                         0.120196       0.061584
                                                         0.037579       0.013164
                          1       5    3py               4.698897       0.199984
                                                         2.968840       0.122101
                                                         1.627478      -0.171844
                                                         0.758189      -0.385171
                                                         0.320142      -0.054020
                                                         0.120196       0.061584
                                                         0.037579       0.013164
                          1       5    3pz               4.698897       0.199984
                                                         2.968840       0.122101
                                                         1.627478      -0.171844
                                                         0.758189      -0.385171
                                                         0.320142      -0.054020
                                                         0.120196       0.061584
                                                         0.037579       0.013164

                          1       6    4px               4.698897      -0.052699
                                                         2.968840      -0.138454
                                                         1.627478      -0.270140
                                                         0.758189       0.582379
                                                         0.320142       0.110357
                                                         0.120196       0.012891
                                                         0.037579       0.007903
                          1       6    4py               4.698897      -0.052699
                                                         2.968840      -0.138454
                                                         1.627478      -0.270140
                                                         0.758189       0.582379
                                                         0.320142       0.110357
                                                         0.120196       0.012891
                                                         0.037579       0.007903
                          1       6    4pz               4.698897      -0.052699
                                                         2.968840      -0.138454
                                                         1.627478      -0.270140
                                                         0.758189       0.582379
                                                         0.320142       0.110357
                                                         0.120196       0.012891
                                                         0.037579       0.007903

                          1       7    5px               4.698897       0.941218
                                                         2.968840      -0.153923
                                                         1.627478      -1.299492
                                                         0.758189      -0.342934
                                                         0.320142       0.310441
                                                         0.120196       0.056144
                                                         0.037579      -0.015260
                          1       7    5py               4.698897       0.941218
                                                         2.968840      -0.153923
                                                         1.627478      -1.299492
                                                         0.758189      -0.342934
                                                         0.320142       0.310441
                                                         0.120196       0.056144
                                                         0.037579      -0.015260
                          1       7    5pz               4.698897       0.941218
                                                         2.968840      -0.153923
                                                         1.627478      -1.299492
                                                         0.758189      -0.342934
                                                         0.320142       0.310441
                                                         0.120196       0.056144
                                                         0.037579      -0.015260

                          1       8    4dx2              4.698897      -0.056991
                                                         2.968840      -0.106877
                                                         1.627478       0.314112
                                                         0.758189      -0.299390
                                                         0.320142      -0.151771
                                                         0.120196       0.008248
                                                         0.037579       0.003447
                          1       8    4dxy              4.698897      -0.098710
                                                         2.968840      -0.185116
                                                         1.627478       0.544057
                                                         0.758189      -0.518560
                                                         0.320142      -0.262875
                                                         0.120196       0.014286
                                                         0.037579       0.005971
                          1       8    4dxz              4.698897      -0.098710
                                                         2.968840      -0.185116
                                                         1.627478       0.544057
                                                         0.758189      -0.518560
                                                         0.320142      -0.262875
                                                         0.120196       0.014286
                                                         0.037579       0.005971
                          1       8    4dy2              4.698897      -0.056991
                                                         2.968840      -0.106877
                                                         1.627478       0.314112
                                                         0.758189      -0.299390
                                                         0.320142      -0.151771
                                                         0.120196       0.008248
                                                         0.037579       0.003447
                          1       8    4dyz              4.698897      -0.098710
                                                         2.968840      -0.185116
                                                         1.627478       0.544057
                                                         0.758189      -0.518560
                                                         0.320142      -0.262875
                                                         0.120196       0.014286
                                                         0.037579       0.005971
                          1       8    4dz2              4.698897      -0.056991
                                                         2.968840      -0.106877
                                                         1.627478       0.314112
                                                         0.758189      -0.299390
                                                         0.320142      -0.151771
                                                         0.120196       0.008248
                                                         0.037579       0.003447

                          1       9    5dx2              4.698897       0.199146
                                                         2.968840      -0.300081
                                                         1.627478       0.179120
                                                         0.758189      -0.316813
                                                         0.320142      -0.081135
                                                         0.120196      -0.010480
                                                         0.037579      -0.002330
                          1       9    5dxy              4.698897       0.344931
                                                         2.968840      -0.519756
                                                         1.627478       0.310245
                                                         0.758189      -0.548737
                                                         0.320142      -0.140530
                                                         0.120196      -0.018151
                                                         0.037579      -0.004035
                          1       9    5dxz              4.698897       0.344931
                                                         2.968840      -0.519756
                                                         1.627478       0.310245
                                                         0.758189      -0.548737
                                                         0.320142      -0.140530
                                                         0.120196      -0.018151
                                                         0.037579      -0.004035
                          1       9    5dy2              4.698897       0.199146
                                                         2.968840      -0.300081
                                                         1.627478       0.179120
                                                         0.758189      -0.316813
                                                         0.320142      -0.081135
                                                         0.120196      -0.010480
                                                         0.037579      -0.002330
                          1       9    5dyz              4.698897       0.344931
                                                         2.968840      -0.519756
                                                         1.627478       0.310245
                                                         0.758189      -0.548737
                                                         0.320142      -0.140530
                                                         0.120196      -0.018151
                                                         0.037579      -0.004035
                          1       9    5dz2              4.698897       0.199146
                                                         2.968840      -0.300081
                                                         1.627478       0.179120
                                                         0.758189      -0.316813
                                                         0.320142      -0.081135
                                                         0.120196      -0.010480
                                                         0.037579      -0.002330

                          1      10    6dx2              4.698897       0.935799
                                                         2.968840      -1.015984
                                                         1.627478       0.143825
                                                         0.758189      -0.466083
                                                         0.320142       0.027997
                                                         0.120196       0.046611
                                                         0.037579      -0.002351
                          1      10    6dxy              4.698897       1.620852
                                                         2.968840      -1.759737
                                                         1.627478       0.249112
                                                         0.758189      -0.807279
                                                         0.320142       0.048493
                                                         0.120196       0.080733
                                                         0.037579      -0.004072
                          1      10    6dxz              4.698897       1.620852
                                                         2.968840      -1.759737
                                                         1.627478       0.249112
                                                         0.758189      -0.807279
                                                         0.320142       0.048493
                                                         0.120196       0.080733
                                                         0.037579      -0.004072
                          1      10    6dy2              4.698897       0.935799
                                                         2.968840      -1.015984
                                                         1.627478       0.143825
                                                         0.758189      -0.466083
                                                         0.320142       0.027997
                                                         0.120196       0.046611
                                                         0.037579      -0.002351
                          1      10    6dyz              4.698897       1.620852
                                                         2.968840      -1.759737
                                                         1.627478       0.249112
                                                         0.758189      -0.807279
                                                         0.320142       0.048493
                                                         0.120196       0.080733
                                                         0.037579      -0.004072
                          1      10    6dz2              4.698897       0.935799
                                                         2.968840      -1.015984
                                                         1.627478       0.143825
                                                         0.758189      -0.466083
                                                         0.320142       0.027997
                                                         0.120196       0.046611
                                                         0.037579      -0.002351

                          1      11    5fx3              4.698897      -3.402104
                                                         2.968840      -0.738949
                                                         1.627478      -0.032877
                                                         0.758189      -0.157249
                                                         0.320142      -0.058658
                                                         0.120196      -0.005097
                                                         0.037579      -0.000104
                          1      11    5fx2y             4.698897      -7.607335
                                                         2.968840      -1.652341
                                                         1.627478      -0.073514
                                                         0.758189      -0.351620
                                                         0.320142      -0.131164
                                                         0.120196      -0.011398
                                                         0.037579      -0.000233
                          1      11    5fx2z             4.698897      -7.607335
                                                         2.968840      -1.652341
                                                         1.627478      -0.073514
                                                         0.758189      -0.351620
                                                         0.320142      -0.131164
                                                         0.120196      -0.011398
                                                         0.037579      -0.000233
                          1      11    5fxy2             4.698897      -7.607335
                                                         2.968840      -1.652341
                                                         1.627478      -0.073514
                                                         0.758189      -0.351620
                                                         0.320142      -0.131164
                                                         0.120196      -0.011398
                                                         0.037579      -0.000233
                          1      11    5fxyz             4.698897     -13.176291
                                                         2.968840      -2.861939
                                                         1.627478      -0.127331
                                                         0.758189      -0.609024
                                                         0.320142      -0.227182
                                                         0.120196      -0.019742
                                                         0.037579      -0.000404
                          1      11    5fxz2             4.698897      -7.607335
                                                         2.968840      -1.652341
                                                         1.627478      -0.073514
                                                         0.758189      -0.351620
                                                         0.320142      -0.131164
                                                         0.120196      -0.011398
                                                         0.037579      -0.000233
                          1      11    5fy3              4.698897      -3.402104
                                                         2.968840      -0.738949
                                                         1.627478      -0.032877
                                                         0.758189      -0.157249
                                                         0.320142      -0.058658
                                                         0.120196      -0.005097
                                                         0.037579      -0.000104
                          1      11    5fy2z             4.698897      -7.607335
                                                         2.968840      -1.652341
                                                         1.627478      -0.073514
                                                         0.758189      -0.351620
                                                         0.320142      -0.131164
                                                         0.120196      -0.011398
                                                         0.037579      -0.000233
                          1      11    5fyz2             4.698897      -7.607335
                                                         2.968840      -1.652341
                                                         1.627478      -0.073514
                                                         0.758189      -0.351620
                                                         0.320142      -0.131164
                                                         0.120196      -0.011398
                                                         0.037579      -0.000233
                          1      11    5fz3              4.698897      -3.402104
                                                         2.968840      -0.738949
                                                         1.627478      -0.032877
                                                         0.758189      -0.157249
                                                         0.320142      -0.058658
                                                         0.120196      -0.005097
                                                         0.037579      -0.000104

                          1      12    6fx3              4.698897      14.640974
                                                         2.968840       4.162688
                                                         1.627478       1.491899
                                                         0.758189      -0.036095
                                                         0.320142      -0.044070
                                                         0.120196       0.003627
                                                         0.037579       0.000458
                          1      12    6fx2y             4.698897      32.738212
                                                         2.968840       9.308053
                                                         1.627478       3.335987
                                                         0.758189      -0.080710
                                                         0.320142      -0.098543
                                                         0.120196       0.008111
                                                         0.037579       0.001023
                          1      12    6fx2z             4.698897      32.738212
                                                         2.968840       9.308053
                                                         1.627478       3.335987
                                                         0.758189      -0.080710
                                                         0.320142      -0.098543
                                                         0.120196       0.008111
                                                         0.037579       0.001023
                          1      12    6fxy2             4.698897      32.738212
                                                         2.968840       9.308053
                                                         1.627478       3.335987
                                                         0.758189      -0.080710
                                                         0.320142      -0.098543
                                                         0.120196       0.008111
                                                         0.037579       0.001023
                          1      12    6fxyz             4.698897      56.704247
                                                         2.968840      16.122021
                                                         1.627478       5.778098
                                                         0.758189      -0.139794
                                                         0.320142      -0.170682
                                                         0.120196       0.014049
                                                         0.037579       0.001772
                          1      12    6fxz2             4.698897      32.738212
                                                         2.968840       9.308053
                                                         1.627478       3.335987
                                                         0.758189      -0.080710
                                                         0.320142      -0.098543
                                                         0.120196       0.008111
                                                         0.037579       0.001023
                          1      12    6fy3              4.698897      14.640974
                                                         2.968840       4.162688
                                                         1.627478       1.491899
                                                         0.758189      -0.036095
                                                         0.320142      -0.044070
                                                         0.120196       0.003627
                                                         0.037579       0.000458
                          1      12    6fy2z             4.698897      32.738212
                                                         2.968840       9.308053
                                                         1.627478       3.335987
                                                         0.758189      -0.080710
                                                         0.320142      -0.098543
                                                         0.120196       0.008111
                                                         0.037579       0.001023
                          1      12    6fyz2             4.698897      32.738212
                                                         2.968840       9.308053
                                                         1.627478       3.335987
                                                         0.758189      -0.080710
                                                         0.320142      -0.098543
                                                         0.120196       0.008111
                                                         0.037579       0.001023
                          1      12    6fz3              4.698897      14.640974
                                                         2.968840       4.162688
                                                         1.627478       1.491899
                                                         0.758189      -0.036095
                                                         0.320142      -0.044070
                                                         0.120196       0.003627
                                                         0.037579       0.000458

                          1      13    7fx3              4.698897     -15.177158
                                                         2.968840      -4.357617
                                                         1.627478      -1.133091
                                                         0.758189      -0.205377
                                                         0.320142      -0.009992
                                                         0.120196       0.003199
                                                         0.037579       0.000232
                          1      13    7fx2y             4.698897     -33.937157
                                                         2.968840      -9.743927
                                                         1.627478      -2.533668
                                                         0.758189      -0.459237
                                                         0.320142      -0.022343
                                                         0.120196       0.007152
                                                         0.037579       0.000519
                          1      13    7fx2z             4.698897     -33.937157
                                                         2.968840      -9.743927
                                                         1.627478      -2.533668
                                                         0.758189      -0.459237
                                                         0.320142      -0.022343
                                                         0.120196       0.007152
                                                         0.037579       0.000519
                          1      13    7fxy2             4.698897     -33.937157
                                                         2.968840      -9.743927
                                                         1.627478      -2.533668
                                                         0.758189      -0.459237
                                                         0.320142      -0.022343
                                                         0.120196       0.007152
                                                         0.037579       0.000519
                          1      13    7fxyz             4.698897     -58.780880
                                                         2.968840     -16.876976
                                                         1.627478      -4.388442
                                                         0.758189      -0.795422
                                                         0.320142      -0.038699
                                                         0.120196       0.012388
                                                         0.037579       0.000898
                          1      13    7fxz2             4.698897     -33.937157
                                                         2.968840      -9.743927
                                                         1.627478      -2.533668
                                                         0.758189      -0.459237
                                                         0.320142      -0.022343
                                                         0.120196       0.007152
                                                         0.037579       0.000519
                          1      13    7fy3              4.698897     -15.177158
                                                         2.968840      -4.357617
                                                         1.627478      -1.133091
                                                         0.758189      -0.205377
                                                         0.320142      -0.009992
                                                         0.120196       0.003199
                                                         0.037579       0.000232
                          1      13    7fy2z             4.698897     -33.937157
                                                         2.968840      -9.743927
                                                         1.627478      -2.533668
                                                         0.758189      -0.459237
                                                         0.320142      -0.022343
                                                         0.120196       0.007152
                                                         0.037579       0.000519
                          1      13    7fyz2             4.698897     -33.937157
                                                         2.968840      -9.743927
                                                         1.627478      -2.533668
                                                         0.758189      -0.459237
                                                         0.320142      -0.022343
                                                         0.120196       0.007152
                                                         0.037579       0.000519
                          1      13    7fz3              4.698897     -15.177158
                                                         2.968840      -4.357617
                                                         1.627478      -1.133091
                                                         0.758189      -0.205377
                                                         0.320142      -0.009992
                                                         0.120196       0.003199
                                                         0.037579       0.000232

                          1      14    6gx4              4.698897      -0.287804
                                                         2.968840       0.205460
                                                         1.627478      -0.094824
                                                         0.758189       0.081770
                                                         0.320142       0.025209
                                                         0.120196       0.001562
                                                         0.037579       0.000023
                          1      14    6gx3y             4.698897      -0.761458
                                                         2.968840       0.543596
                                                         1.627478      -0.250880
                                                         0.758189       0.216343
                                                         0.320142       0.066697
                                                         0.120196       0.004133
                                                         0.037579       0.000060
                          1      14    6gx3z             4.698897      -0.761458
                                                         2.968840       0.543596
                                                         1.627478      -0.250880
                                                         0.758189       0.216343
                                                         0.320142       0.066697
                                                         0.120196       0.004133
                                                         0.037579       0.000060
                          1      14    6gx2y2            4.698897      -0.983038
                                                         2.968840       0.701779
                                                         1.627478      -0.323885
                                                         0.758189       0.279297
                                                         0.320142       0.086106
                                                         0.120196       0.005335
                                                         0.037579       0.000077
                          1      14    6gx2yz            4.698897      -1.702671
                                                         2.968840       1.215517
                                                         1.627478      -0.560984
                                                         0.758189       0.483757
                                                         0.320142       0.149139
                                                         0.120196       0.009241
                                                         0.037579       0.000133
                          1      14    6gx2z2            4.698897      -0.983038
                                                         2.968840       0.701779
                                                         1.627478      -0.323885
                                                         0.758189       0.279297
                                                         0.320142       0.086106
                                                         0.120196       0.005335
                                                         0.037579       0.000077
                          1      14    6gxy3             4.698897      -0.761458
                                                         2.968840       0.543596
                                                         1.627478      -0.250880
                                                         0.758189       0.216343
                                                         0.320142       0.066697
                                                         0.120196       0.004133
                                                         0.037579       0.000060
                          1      14    6gxy2z            4.698897      -1.702671
                                                         2.968840       1.215517
                                                         1.627478      -0.560984
                                                         0.758189       0.483757
                                                         0.320142       0.149139
                                                         0.120196       0.009241
                                                         0.037579       0.000133
                          1      14    6gxyz2            4.698897      -1.702671
                                                         2.968840       1.215517
                                                         1.627478      -0.560984
                                                         0.758189       0.483757
                                                         0.320142       0.149139
                                                         0.120196       0.009241
                                                         0.037579       0.000133
                          1      14    6gxz3             4.698897      -0.761458
                                                         2.968840       0.543596
                                                         1.627478      -0.250880
                                                         0.758189       0.216343
                                                         0.320142       0.066697
                                                         0.120196       0.004133
                                                         0.037579       0.000060
                          1      14    6gy4              4.698897      -0.287804
                                                         2.968840       0.205460
                                                         1.627478      -0.094824
                                                         0.758189       0.081770
                                                         0.320142       0.025209
                                                         0.120196       0.001562
                                                         0.037579       0.000023
                          1      14    6gy3z             4.698897      -0.761458
                                                         2.968840       0.543596
                                                         1.627478      -0.250880
                                                         0.758189       0.216343
                                                         0.320142       0.066697
                                                         0.120196       0.004133
                                                         0.037579       0.000060
                          1      14    6gy2z2            4.698897      -0.983038
                                                         2.968840       0.701779
                                                         1.627478      -0.323885
                                                         0.758189       0.279297
                                                         0.320142       0.086106
                                                         0.120196       0.005335
                                                         0.037579       0.000077
                          1      14    6gyz3             4.698897      -0.761458
                                                         2.968840       0.543596
                                                         1.627478      -0.250880
                                                         0.758189       0.216343
                                                         0.320142       0.066697
                                                         0.120196       0.004133
                                                         0.037579       0.000060
                          1      14    6gz4              4.698897      -0.287804
                                                         2.968840       0.205460
                                                         1.627478      -0.094824
                                                         0.758189       0.081770
                                                         0.320142       0.025209
                                                         0.120196       0.001562
                                                         0.037579       0.000023

     Auxiliary Fit Basis Set                                               FIT14

       Number of orbital shell sets:                                          14
       Number of orbital shells:                                              14
       Number of primitive Cartesian functions:                               14
       Number of Cartesian basis functions:                                   76
       Number of spherical basis functions:                                   58
       Norm type:                                                              2

       Normalised Cartesian orbitals:

                        Set   Shell   Orbital            Exponent    Coefficient

                          1       1    1s                0.058810       0.085114

                          2       1    1s                2.382396       1.366692

                          3       1    1s                0.425355       0.375382

                          4       1    1s                2.977464       1.615455

                          5       1    1px               0.416517       0.476959
                          5       1    1py               0.416517       0.476959
                          5       1    1pz               0.416517       0.476959

                          6       1    1px               4.802029      10.132603
                          6       1    1py               4.802029      10.132603
                          6       1    1pz               4.802029      10.132603

                          7       1    1px               5.490125      11.978925
                          7       1    1py               5.490125      11.978925
                          7       1    1pz               5.490125      11.978925

                          8       1    1dx2              0.041160       0.006191
                          8       1    1dxy              0.041160       0.010722
                          8       1    1dxz              0.041160       0.010722
                          8       1    1dy2              0.041160       0.006191
                          8       1    1dyz              0.041160       0.010722
                          8       1    1dz2              0.041160       0.006191

                          9       1    1dx2              0.140311       0.052945
                          9       1    1dxy              0.140311       0.091703
                          9       1    1dxz              0.140311       0.091703
                          9       1    1dy2              0.140311       0.052945
                          9       1    1dyz              0.140311       0.091703
                          9       1    1dz2              0.140311       0.052945

                         10       1    1dx2              0.448761       0.404983
                         10       1    1dxy              0.448761       0.701451
                         10       1    1dxz              0.448761       0.701451
                         10       1    1dy2              0.448761       0.404983
                         10       1    1dyz              0.448761       0.701451
                         10       1    1dz2              0.448761       0.404983

                         11       1    1fx3              0.272889       0.079236
                         11       1    1fx2y             0.272889       0.177177
                         11       1    1fx2z             0.272889       0.177177
                         11       1    1fxy2             0.272889       0.177177
                         11       1    1fxyz             0.272889       0.306880
                         11       1    1fxz2             0.272889       0.177177
                         11       1    1fy3              0.272889       0.079236
                         11       1    1fy2z             0.272889       0.177177
                         11       1    1fyz2             0.272889       0.177177
                         11       1    1fz3              0.272889       0.079236

                         12       1    1fx3              1.105071       1.843242
                         12       1    1fx2y             1.105071       4.121614
                         12       1    1fx2z             1.105071       4.121614
                         12       1    1fxy2             1.105071       4.121614
                         12       1    1fxyz             1.105071       7.138844
                         12       1    1fxz2             1.105071       4.121614
                         12       1    1fy3              1.105071       1.843242
                         12       1    1fy2z             1.105071       4.121614
                         12       1    1fyz2             1.105071       4.121614
                         12       1    1fz3              1.105071       1.843242

                         13       1    1fx3              3.772707      29.202750
                         13       1    1fx2y             3.772707      65.299334
                         13       1    1fx2z             3.772707      65.299334
                         13       1    1fxy2             3.772707      65.299334
                         13       1    1fxyz             3.772707     113.101763
                         13       1    1fxz2             3.772707      65.299334
                         13       1    1fy3              3.772707      29.202750
                         13       1    1fy2z             3.772707      65.299334
                         13       1    1fyz2             3.772707      65.299334
                         13       1    1fz3              3.772707      29.202750

                         14       1    1gx4              0.176064       0.009376
                         14       1    1gx3y             0.176064       0.024807
                         14       1    1gx3z             0.176064       0.024807
                         14       1    1gx2y2            0.176064       0.032026
                         14       1    1gx2yz            0.176064       0.055471
                         14       1    1gx2z2            0.176064       0.032026
                         14       1    1gxy3             0.176064       0.024807
                         14       1    1gxy2z            0.176064       0.055471
                         14       1    1gxyz2            0.176064       0.055471
                         14       1    1gxz3             0.176064       0.024807
                         14       1    1gy4              0.176064       0.009376
                         14       1    1gy3z             0.176064       0.024807
                         14       1    1gy2z2            0.176064       0.032026
                         14       1    1gyz3             0.176064       0.024807
                         14       1    1gz4              0.176064       0.009376

     GTH Potential information for                                   GTH-PBE-q14

       Description:                       Goedecker-Teter-Hutter pseudopotential
                                           Goedecker et al., PRB 54, 1703 (1996)
                                          Hartwigsen et al., PRB 58, 3641 (1998)
                                                      Krack, TCA 114, 145 (2005)

       Gaussian exponent of the core charge distribution:               1.780578
       Electronic configuration (s p d ...):                       4   6   0   4

       Parameters of the local part of the GTH pseudopotential:

                          rloc        C1          C2          C3          C4
                        0.529913   17.806463   -0.320955

       Parameters of the non-local part of the GTH pseudopotential:

                   l      r(l)      h(i,j,l)

                   0    0.501140   -1.364439    2.464749
                                    2.464749   -3.181977
                   1    0.500391   -1.559426    1.539392
                                    1.539392   -1.821434
                   2    0.334318   -1.700644
                   3    0.295675  -18.643271

  3. Atomic kind: F                                     Number of atoms:      63

     Orbital Basis Set                                        TZVP-MOLOPT-GTH-q7

       Number of orbital shell sets:                                           1
       Number of orbital shells:                                               7
       Number of primitive Cartesian functions:                                7
[...]
 flops   139 x     3 x    69          35122855824     100.0%      0.0%      0.0%
 flops    58 x    18 x    32          60086292480     100.0%      0.0%      0.0%
 flops    18 x    58 x    32          64092045312     100.0%      0.0%      0.0%
 flops   138 x    32 x    53          68349505536     100.0%      0.0%      0.0%
 flops   139 x    32 x    53          68844791808     100.0%      0.0%      0.0%
 flops    35 x    32 x    70          74364595200     100.0%      0.0%      0.0%
 flops    18 x     3 x    18          79044733224     100.0%      0.0%      0.0%
 flops    58 x    25 x    32          82217088000     100.0%      0.0%      0.0%
 flops    58 x    12 x    32          84190298112     100.0%      0.0%      0.0%
 flops    12 x    58 x    32          84190298112     100.0%      0.0%      0.0%
 flops    25 x    58 x    32          87698227200     100.0%      0.0%      0.0%
 flops    58 x    17 x    32         121062752256     100.0%      0.0%      0.0%
 flops    17 x    58 x    32         121062752256     100.0%      0.0%      0.0%
 flops    35 x    32 x    32         127279595520     100.0%      0.0%      0.0%
 flops   140 x    32 x    70         137371852800     100.0%      0.0%      0.0%
 flops   145 x    32 x    70         142277990400     100.0%      0.0%      0.0%
 flops   155 x    32 x    70         152090265600     100.0%      0.0%      0.0%
 flops   156 x    32 x    70         153071493120     100.0%      0.0%      0.0%
 flops    18 x     3 x    17         154123064064     100.0%      0.0%      0.0%
 flops    17 x     3 x    18         154123064064     100.0%      0.0%      0.0%
 flops    35 x    32 x    69         171038568960     100.0%      0.0%      0.0%
 flops    32 x    32 x    53         196959166464     100.0%      0.0%      0.0%
 flops    58 x    32 x    18         209308603392     100.0%      0.0%      0.0%
 flops    18 x    32 x    58         209308603392     100.0%      0.0%      0.0%
 flops    17 x     3 x    17         300512354304     100.0%      0.0%      0.0%
 flops   140 x    32 x    69         315955261440     100.0%      0.0%      0.0%
 flops   145 x    32 x    69         327239377920     100.0%      0.0%      0.0%
 flops   155 x    32 x    69         349807610880     100.0%      0.0%      0.0%
 flops   156 x    32 x    69         352064434176     100.0%      0.0%      0.0%
 flops    58 x    32 x    17         408114266112     100.0%      0.0%      0.0%
 flops    17 x    32 x    58         408114266112     100.0%      0.0%      0.0%
 flops   138 x    32 x    70         541637591040     100.0%      0.0%      0.0%
 flops   139 x    32 x    70         545562501120     100.0%      0.0%      0.0%
 flops    18 x    18 x    32         616609677312     100.0%      0.0%      0.0%
 flops   140 x    32 x    32         699330723840     100.0%      0.0%      0.0%
 flops   145 x    32 x    32         724306821120     100.0%      0.0%      0.0%
 flops   155 x    32 x    32         774259015680     100.0%      0.0%      0.0%
 flops   156 x    32 x    32         779254235136     100.0%      0.0%      0.0%
 flops    25 x    12 x    32        1124956569600     100.0%      0.0%      0.0%
 flops    12 x    25 x    32        1124956569600     100.0%      0.0%      0.0%
 flops    12 x    12 x    32        1132214353920     100.0%      0.0%      0.0%
 flops    18 x    17 x    32        1164707168256     100.0%      0.0%      0.0%
 flops    17 x    18 x    32        1164707168256     100.0%      0.0%      0.0%
 flops    25 x    25 x    32        1171829760000     100.0%      0.0%      0.0%
 flops   138 x    32 x    69        1245766459392     100.0%      0.0%      0.0%
 flops   139 x    32 x    69        1254793752576     100.0%      0.0%      0.0%
 flops    32 x    32 x    70        1560808488960     100.0%      0.0%      0.0%
 flops    18 x    32 x    18        2013693115392     100.0%      0.0%      0.0%
 flops    17 x    17 x    32        2306454159360     100.0%      0.0%      0.0%
 flops    32 x    32 x    32        2574699724800     100.0%      0.0%      0.0%
 flops   138 x    32 x    32        2757361139712     100.0%      0.0%      0.0%
 flops   139 x    32 x    32        2777342017536     100.0%      0.0%      0.0%
 flops    32 x    32 x    69        3589859524608     100.0%      0.0%      0.0%
 flops    18 x    32 x    17        3926340698112     100.0%      0.0%      0.0%
 flops    17 x    32 x    18        3926340698112     100.0%      0.0%      0.0%
 flops    17 x    32 x    17        7655660716032     100.0%      0.0%      0.0%
 flops inhomo. stacks               2219150554560     100.0%      0.0%      0.0%
 flops total                        55.238762E+12     100.0%      0.0%      0.0%
 flops max/rank                    473.917899E+09     100.0%      0.0%      0.0%
 matmuls inhomo. stacks                   8122326     100.0%      0.0%      0.0%
 matmuls total                         2043965646     100.0%      0.0%      0.0%
 number of processed stacks             455706688     100.0%      0.0%      0.0%
 average stack size                                     4.5       0.0       0.0
 marketing flops                    65.564307E+12
 -------------------------------------------------------------------------------
 # multiplications                         347012
 max memory usage/rank             853.770240E+06
 # max total images/rank                        2
 # max 3D layers                                1
 # MPI messages exchanged              6895822464
 MPI messages size (bytes):
  total size                        44.756499E+12
  min size                           0.000000E+00
  max size                         114.816000E+03
  average size                       6.490379E+03
 MPI breakdown and total messages size (bytes):
             size <=      128          5627857212                475647912
       128 < size <=     8192           367429140            2207093344416
      8192 < size <=    32768           393375072            7151120759424
     32768 < size <=   131072           507161040           35731292719104
    131072 < size <=  4194304                   0                        0
   4194304 < size <= 16777216                   0                        0
  16777216 < size                               0                        0
 -------------------------------------------------------------------------------

 *** WARNING in dbcsr/mm/dbcsr_mm.F:268 :: Using a non-square number of ***
 *** MPI ranks might lead to poor performance.                          ***
 *** Used ranks: 288                                                    ***
 *** Suggested: 289 576                                                 ***

 -------------------------------------------------------------------------------
 
 MEMORY| Estimated peak process memory [MiB]                                 815

 -------------------------------------------------------------------------------
 ----                             MULTIGRID INFO                            ----
 -------------------------------------------------------------------------------
 count for grid        1:       72825274          cutoff [a.u.]          325.00
 count for grid        2:       84762808          cutoff [a.u.]          108.33
 count for grid        3:      139950648          cutoff [a.u.]           36.11
 count for grid        4:       96377114          cutoff [a.u.]           12.04
 count for grid        5:       63331269          cutoff [a.u.]            4.01
 total gridlevel count  :      457247113

 -------------------------------------------------------------------------------
 -                                                                             -
 -                         MESSAGE PASSING PERFORMANCE                         -
 -                                                                             -
 -------------------------------------------------------------------------------

 ROUTINE             CALLS      AVE VOLUME [Bytes]
 MP_Group            32451
 MP_Bcast           189304                  16360.
 MP_Allreduce      2221456                     22.
 MP_Sync            155549
 MP_Alltoall       1665179               75092093.
 MP_ISendRecv     24342192                  61365.
 MP_Wait          96640000
 MP_comm_split       13649
 MP_ISend         50746358                   3863.
 MP_IRecv         51600606                   3800.
 MP_Recv              6210                 224777.
 MP_Memory        19606122
 -------------------------------------------------------------------------------


 -------------------------------------------------------------------------------
 -                                                                             -
 -                           R E F E R E N C E S                               -
 -                                                                             -
 -------------------------------------------------------------------------------
 
 CP2K version 7.0 (Development Version), the CP2K developers group (2018).
 CP2K is freely available from https://www.cp2k.org/ .

 Schuett, Ole; Messmer, Peter; Hutter, Juerg; VandeVondele, Joost. 
 Electronic Structure Calculations on Graphics Processing Units, John Wiley & Sons, Ltd, 173-190 (2016). 
 GPU-Accelerated Sparse Matrix-Matrix Multiplication for Linear Scaling Density Functional Theory.
 https://dx.doi.org/10.1002/9781118670712.ch8


 Borstnik, U; VandeVondele, J; Weber, V; Hutter, J. 
 PARALLEL COMPUTING, 40 (5-6), 47-58 (2014). 
 Sparse matrix multiplication: The distributed block-compressed sparse
 row library.
 https://dx.doi.org/10.1016/j.parco.2014.03.012


 Hutter, J; Iannuzzi, M; Schiffmann, F; VandeVondele, J. 
 WILEY INTERDISCIPLINARY REVIEWS-COMPUTATIONAL MOLECULAR SCIENCE, 4 (1), 15-25 (2014). 
 CP2K: atomistic simulations of condensed matter systems.
 https://dx.doi.org/10.1002/wcms.1159


 Guidon, M; Hutter, J; VandeVondele, J. 
 JOURNAL OF CHEMICAL THEORY AND COMPUTATION, 6 (8), 2348-2364 (2010). 
 Auxiliary Density Matrix Methods for Hartree-Fock Exchange Calculations.
 https://dx.doi.org/10.1021/ct1002225


 Guidon, M; Hutter, J; VandeVondele, J. 
 JOURNAL OF CHEMICAL THEORY AND COMPUTATION, 5 (11), 3010-3021 (2009). 
 Robust Periodic Hartree-Fock Exchange for Large-Scale Simulations Using
 Gaussian Basis Sets.
 https://dx.doi.org/10.1021/ct900494g


 Guidon, M; Schiffmann, F; Hutter, J; VandeVondele, J. 
 JOURNAL OF CHEMICAL PHYSICS, 128 (21), 214104 (2008). 
 Ab initio molecular dynamics using hybrid density functionals.
 https://dx.doi.org/10.1063/1.2931945


 VandeVondele, J; Hutter, J. 
 JOURNAL OF CHEMICAL PHYSICS, 127 (11), 114105 (2007). 
 Gaussian basis sets for accurate calculations on molecular systems in
 gas and condensed phases.
 https://dx.doi.org/10.1063/1.2770708


 Krack, M. 
 THEORETICAL CHEMISTRY ACCOUNTS, 114 (1-3), 145-152 (2005). 
 Pseudopotentials for H to Kr optimized for gradient-corrected
 exchange-correlation functionals.
 https://dx.doi.org/10.1007/s00214-005-0655-y


 VandeVondele, J; Krack, M; Mohamed, F; Parrinello, M; Chassaing, T;
 Hutter, J. COMPUTER PHYSICS COMMUNICATIONS, 167 (2), 103-128 (2005). 
 QUICKSTEP: Fast and accurate density functional calculations using a
 mixed Gaussian and plane waves approach.
 https://dx.doi.org/10.1016/j.cpc.2004.12.014


 Frigo, M; Johnson, SG. 
 PROCEEDINGS OF THE IEEE, 93 (2), 216-231 (2005). 
 The design and implementation of FFTW3.
 https://dx.doi.org/10.1109/JPROC.2004.840301


 Heyd, J; Scuseria, GE. 
 JOURNAL OF CHEMICAL PHYSICS, 120 (16), 7274-7280 (2004). 
 Assessment and validation of a screened Coulomb hybrid density
 functional.
 https://dx.doi.org/10.1063/1.1668634


 Kolafa, J. 
 JOURNAL OF COMPUTATIONAL CHEMISTRY, 25 (3), 335-342 (2004). 
 Time-reversible always stable predictor-corrector method for molecular dynamics of polarizable molecules.
 https://dx.doi.org/10.1002/jcc.10385


 VandeVondele, J; Hutter, J. 
 JOURNAL OF CHEMICAL PHYSICS, 118 (10), 4365-4369 (2003). 
 An efficient orbital transformation method for electronic structure
 calculations.
 https://dx.doi.org/10.1063/1.1543154


 Hartwigsen, C; Goedecker, S; Hutter, J. 
 PHYSICAL REVIEW B, 58 (7), 3641-3662 (1998). 
 Relativistic separable dual-space Gaussian pseudopotentials from H to Rn.
 https://dx.doi.org/10.1103/PhysRevB.58.3641


 Lippert, G; Hutter, J; Parrinello, M. 
 MOLECULAR PHYSICS, 92 (3), 477-487 (1997). 
 A hybrid Gaussian and plane wave density functional scheme.
 https://dx.doi.org/10.1080/002689797170220


 Perdew, JP; Burke, K; Ernzerhof, M. 
 PHYSICAL REVIEW LETTERS, 77 (18), 3865-3868 (1996). 
 Generalized gradient approximation made simple.
 https://dx.doi.org/10.1103/PhysRevLett.77.3865


 Goedecker, S; Teter, M; Hutter, J. 
 PHYSICAL REVIEW B, 54 (3), 1703-1710 (1996). 
 Separable dual-space Gaussian pseudopotentials.
 https://dx.doi.org/10.1103/PhysRevB.54.1703


 BYRD, RH; LU, PH; NOCEDAL, J; ZHU, CY. 
 SIAM JOURNAL ON SCIENTIFIC COMPUTING, 16 (5), 1190-1208 (1995). 
 A LIMITED MEMORY ALGORITHM FOR BOUND CONSTRAINED OPTIMIZATION.
 https://dx.doi.org/10.1137/0916069


 -------------------------------------------------------------------------------
 -                                                                             -
 -                                T I M I N G                                  -
 -                                                                             -
 -------------------------------------------------------------------------------
 SUBROUTINE                       CALLS  ASD         SELF TIME        TOTAL TIME
                                MAXIMUM       AVERAGE  MAXIMUM  AVERAGE  MAXIMUM
 CP2K                                 1  1.0      0.5      0.6 265893.1 265893.1
 cp_geo_opt                           1  2.0      0.0      0.1 265882.7 265882.8
 geoopt_lbfgs                         1  3.0      0.1      0.3 265882.7 265882.8
 cp_eval_at                          37  5.0      1.1      1.3 265876.0 265877.5
 cp_opt_gopt_step                    24  4.0      0.3      1.2 256742.3 256742.5
 qs_forces                           36  6.0      0.7      1.0 256733.6 256735.0
 qs_energies                         37  6.9      0.9      1.1 201653.2 201655.0
 scf_env_do_scf                      37  7.9      0.2      0.3 166366.9 166368.5
 rebuild_ks_matrix                 2461 10.9      0.0      0.0 163456.6 163465.2
 qs_ks_build_kohn_sham_matrix      2461 11.9      1.9      2.9 163456.6 163465.2
 scf_env_do_scf_inner_loop         2425  8.9      0.4      0.9 148298.3 148300.9
 qs_ks_update_qs_env               2462  9.9      0.0      0.2 114300.4 114309.4
 hfx_ks_matrix                     2461 12.9      0.7      0.9  90006.8  90013.0
 mp_waitall_1                   ******* 16.5  65669.9  85800.9  65669.9  85800.9
 rs_pw_transfer                   74754 14.9      1.6      7.6  58197.7  78417.9
 calculate_rho_elec                9846 12.4  23319.8  52291.1  69726.5  69856.2
 rs_pw_transfer_RS2PW_330          9920 15.4    321.0    458.0  48771.6  69683.9
 density_rs2pw                     9846 13.4      0.6      1.1  45700.9  62417.9
 qs_ks_update_qs_env_forces          36  7.0      0.0      0.0  49195.5  49197.3
 derivatives_four_center             36 11.0      0.2      0.7  46262.5  46264.9
 derivatives_four_center_main        36 12.0      0.4      1.5  46235.9  46238.4
 integrate_four_center             2461 13.9     41.5     79.2  43742.4  43749.7
 qs_rho_update_rho                 2462  9.9      0.1      0.2  43130.8  43246.8
 derivatives_four_center_bin       2374 13.0  28640.5  41740.9  28640.5  41740.9
 sum_up_and_integrate              1267 12.8      2.0      3.3  36970.9  40171.2
 integrate_v_rspace                5068 13.8  13874.3  31377.5  36968.6  40168.7
 integrate_four_center_main        2461 14.9      0.8      1.5  27921.9  38428.1
 integrate_four_center_bin       158942 15.9  27921.0  38426.8  27921.0  38426.8
 potential_pw2rs                   5068 14.8      0.5      0.7  23092.8  31703.7
 pw_transfer                     140446 15.0      6.2      7.5  19563.9  28431.6
 fft_wrap_pw1pw2                 135524 16.0      0.7      0.9  19557.0  28424.7
 mp_sum_lv                          261  6.2  17597.1  28045.1  17597.1  28045.1
 admm_mo_calc_rho_aux              2461 12.9      0.1      0.3  27876.5  27881.7
 mp_alltoall_z22v                211392 20.1  18563.3  27557.2  18563.3  27557.2
 fft_wrap_pw1pw2_330              75868 17.1     14.6     19.6  18489.4  27319.4
 fft3d_pb                         75868 18.1    106.5    215.6  18455.0  27288.8
 mp_sync                         155549 19.2  15993.8  25814.6  15993.8  25814.6
 cube_transpose_2                 69539 18.6      5.2      7.2  10363.0  23910.6
 dbcsr_multiply_generic          347012 13.3     17.4     21.5  23385.0  23694.3
 scf_post_calculation_gpw            37  7.9      0.4      0.6  22004.3  22005.3
 make_lumo                           37  8.9      0.0      0.1  21623.7  21624.7
 ot_eigensolver                      74  9.9      0.4      0.7  21607.0  21608.6
 init_scf_loop                       37  8.9      0.3      1.2  18063.1  18065.8
 build_core_hamiltonian_matrix_      36  7.0      0.1      0.4   6471.8  14754.6
 mp_sum_d                        247772 14.8   9816.4  14472.1   9816.4  14472.1
 calculate_ecore_overlap             73  8.0      0.0      0.0   8286.8  12720.4
 build_core_ppnl_forces              36  8.0   5480.4  12519.7   5480.5  12519.8
 qs_energies_init_hamiltonians       37  7.9      0.2      0.4  12503.4  12504.5
 build_core_hamiltonian_matrix       37  8.9      0.0      0.1   5273.9  12454.0
 cube_transpose_4                 30155 18.8      5.6      9.0   7101.4  12131.5
 build_core_ppnl                     37  9.9   4980.0  11806.4   4980.0  11806.4
 qs_ot_get_p                      24182 11.3      0.2      0.3  11427.8  11592.5
 multiply_cannon                 347012 14.3     97.7    104.8  10762.8  11229.8
 ot_mini                          21177 11.2      0.1      0.2  11100.6  11105.2
 qs_env_update_s_mstruct             37  8.9      0.0      0.2   7223.1  11103.1
 calculate_rho_core                  37  9.9      0.1      1.2   7219.5  11101.8
 qs_scf_new_mos                    2425  9.9      0.0      0.1   9321.6   9336.1
 qs_scf_loop_do_ot                 2425 10.9      0.1      0.2   9321.6   9336.1
 qs_ot_get_derivative             11875 12.4      0.2      0.3   9256.7   9284.6
 ot_scf_mini                       2425 11.9      0.2      0.3   8987.9   8997.2
 mp_sum_l                       1642086 14.4   7079.8   7473.8   7079.8   7473.8
 admm_mo_merge_ks_matrix           2461 12.9      0.0      0.1   5649.4   7217.9
 merge_ks_matrix_none              2461 13.9      0.3      0.7   5649.4   7217.9
 multiply_cannon_metrocomm1     8328288 15.3     24.7     26.2   4151.1   7001.6
 multiply_cannon_metrocomm3     8328288 15.3     23.6     25.4   3498.2   6756.7
 qs_ot_p2m_diag                   13501 12.3      0.5      0.8   6254.6   6400.1
 mp_alltoall_i22                 117807 16.0   4200.9   6011.8   4200.9   6011.8
 copy_dbcsr_to_fm                 32445 13.7      0.8      1.2   4355.3   5973.0
 rs_pw_transfer_PW2RS_330          5178 16.7    143.1    176.8   5193.1   5414.6
 -------------------------------------------------------------------------------

 The number of warnings for this run is : 2
 
 -------------------------------------------------------------------------------
  **** **** ******  **  PROGRAM ENDED AT                 2018-11-29 15:47:04.658
 ***** ** ***  *** **   PROGRAM RAN ON                                     sm113
 **    ****   ******    PROGRAM RAN BY                                    npopov
 ***** **    ** ** **   PROGRAM PROCESS ID                                 34377
  **** **  *******  **  PROGRAM STOPPED IN /home/npopov/nd/pstr/baf2_96_nd3_c3v_
                                           O
