# Projected DOS for atomic kind Ce at iteration step i = 46, E(Fermi) =     0.135414 a.u.
#     MO Eigenvalue [a.u.]      Occupation                 s                py                pz                px               d-2               d-1                d0               d+1               d+2               f-3               f-2               f-1                f0               f+1               f+2               f+3               g-4               g-3               g-2               g-1                g0               g+1               g+2               g+3               g+4
       1         -9.888055        1.000000        0.98856458        0.00000000        0.00000000        0.00000482        0.00000000        0.00000000        0.00000326        0.00000000        0.00000979        0.00000000        0.00000000        0.00000000        0.00000000        0.00000105        0.00000000        0.00000181        0.00000000        0.00000000        0.00000000        0.00000000        0.00001517        0.00000000        0.00000147        0.00000000        0.00000546
       2         -7.281849        1.000000        0.00000000        0.99932367        0.00035680        0.00000007        0.00000004        0.00000000        0.00000000        0.00000000        0.00000000        0.00000002        0.00000000        0.00000002        0.00000000        0.00000000        0.00000000        0.00000000        0.00000000        0.00000000        0.00000001        0.00000000        0.00000000        0.00000000        0.00000000        0.00000000        0.00000000
       3         -7.281804        1.000000        0.00000000        0.00035679        0.99932364        0.00000014        0.00000000        0.00000000        0.00000000        0.00000004        0.00000000        0.00000000        0.00000000        0.00000000        0.00000005        0.00000000        0.00000000        0.00000000        0.00000000        0.00000000        0.00000000        0.00000000        0.00000000        0.00000000        0.00000000        0.00000001        0.00000000
       4         -7.281358        1.000000        0.00000048        0.00000007        0.00000014        0.99966436        0.00000000        0.00000000        0.00000001        0.00000000        0.00000003        0.00000000        0.00000000        0.00000000        0.00000000        0.00000000        0.00000000        0.00000000        0.00000000        0.00000000        0.00000000        0.00000000        0.00000000        0.00000000        0.00000001        0.00000000        0.00000000
       5         -3.619153        1.000000        0.00000001        0.00000000        0.00000000        0.00000001        0.00000000        0.00000000        0.92620178        0.00000000        0.07350048        0.00000000        0.00000000        0.00000000        0.00000000        0.00000001        0.00000000        0.00000000        0.00000000        0.00000000        0.00000000        0.00000000        0.00000020        0.00000000        0.00000000        0.00000000        0.00000009
       6         -3.617873        1.000000        0.00000007        0.00000000        0.00000000        0.00000011        0.00000000        0.00000005        0.07349845        0.00000000        0.92618965        0.00000000        0.00000000        0.00000000        0.00000000        0.00000001        0.00000000        0.00000001        0.00000000        0.00000000        0.00000000        0.00000000        0.00000003        0.00000000        0.00000002        0.00000000        0.00000000
       7         -3.616139        1.000000        0.00000000        0.00000004        0.00000000        0.00000000        0.99966305        0.00000005        0.00000000        0.00000112        0.00000000        0.00000014        0.00000000        0.00000006        0.00000000        0.00000000        0.00000000        0.00000000        0.00000009        0.00000000        0.00000007        0.00000000        0.00000000        0.00000000        0.00000000        0.00000000        0.00000000
       8         -3.615618        1.000000        0.00000000        0.00000000        0.00000000        0.00000000        0.00000005        0.99965871        0.00000001        0.00000016        0.00000004        0.00000000        0.00000011        0.00000000        0.00000000        0.00000000        0.00000000        0.00000000        0.00000000        0.00000001        0.00000000        0.00000006        0.00000000        0.00000000        0.00000000        0.00000000        0.00000000
       9         -3.615384        1.000000        0.00000000        0.00000000        0.00000003        0.00000000        0.00000112        0.00000016        0.00000000        0.99965606        0.00000000        0.00000000        0.00000000        0.00000000        0.00000002        0.00000000        0.00000018        0.00000000        0.00000000        0.00000000        0.00000000        0.00000000        0.00000000        0.00000000        0.00000000        0.00000001        0.00000000
      10         -1.066466        1.000000        0.91233006        0.00000001        0.00000001        0.00005354        0.00000000        0.00000010        0.00001510        0.00000000        0.00004469        0.00000000        0.00000000        0.00000001        0.00000000        0.00000077        0.00000001        0.00000164        0.00000000        0.00000000        0.00000000        0.00000000        0.00017399        0.00000000        0.00000392        0.00000000        0.00007430
      11         -1.063152        1.000000        0.01886676        0.00000003        0.00000011        0.00058204        0.00000007        0.00000101        0.00009532        0.00000000        0.00041381        0.00000002        0.00000000        0.00000008        0.00000002        0.00007416        0.00000004        0.00005001        0.00000000        0.00000002        0.00000000        0.00000000        0.00000481        0.00000000        0.00009952        0.00000000        0.00006156
      12         -1.062806        1.000000        0.00000709        0.00000001        0.00000001        0.00002001        0.00000013        0.00000001        0.00103092        0.00000003        0.00045668        0.00000002        0.00000000        0.00000001        0.00000000        0.00007608        0.00000000        0.00002318        0.00000000        0.00000000        0.00000000        0.00000000        0.00004776        0.00000000        0.00003777        0.00000000        0.00005105
      13         -1.062631        1.000000        0.00055550        0.00000072        0.00002817        0.00059351        0.00000190        0.00000045        0.00032693        0.00011693        0.00063277        0.00000040        0.00000000        0.00000001        0.00000777        0.00005034        0.00001900        0.00006289        0.00000000        0.00000001        0.00000003        0.00000000        0.00000738        0.00000001        0.00002402        0.00000248        0.00003873
      14         -1.062625        1.000000        0.00001454        0.00000027        0.00119376        0.00001177        0.00000022        0.00000015        0.00000652        0.00546979        0.00001322        0.00000004        0.00000000        0.00000002        0.00033512        0.00000097        0.00094024        0.00000133        0.00000000        0.00000000        0.00000000        0.00000000        0.00000020        0.00000058        0.00000041        0.00011809        0.00000081
      15         -1.062514        1.000000        0.00000650        0.00126070        0.00000001        0.00000109        0.00541362        0.00000012        0.00000020        0.00000015        0.00000074        0.00114636        0.00000000        0.00017680        0.00000000        0.00000010        0.00000011        0.00000021        0.00001007        0.00000000        0.00010637        0.00000000        0.00000002        0.00000000        0.00000002        0.00000000        0.00000000
      16         -1.062455        1.000000        0.00309208        0.00000083        0.00000000        0.00310762        0.00000424        0.00000000        0.00011573        0.00000017        0.00018429        0.00000077        0.00000000        0.00000011        0.00000000        0.00009724        0.00000000        0.00011019        0.00000001        0.00000000        0.00000008        0.00000000        0.00001893        0.00000000        0.00000015        0.00000000        0.00000003
      17         -1.062235        1.000000        0.00000363        0.00000027        0.00000000        0.00006017        0.00000102        0.00000000        0.00043683        0.00000001        0.00013199        0.00000022        0.00000000        0.00000003        0.00000000        0.00105822        0.00000000        0.00080811        0.00000000        0.00000000        0.00000002        0.00000000        0.00014109        0.00000000        0.00011622        0.00000000        0.00022680
      18         -1.061640        1.000000        0.00015028        0.00219710        0.00000019        0.00001257        0.01095032        0.00000020        0.00000260        0.00000010        0.00000080        0.00112450        0.00000000        0.00031374        0.00000003        0.00000007        0.00000007        0.00000292        0.00000689        0.00000000        0.00034973        0.00000000        0.00000003        0.00000000        0.00000063        0.00000001        0.00000288
      19         -1.061614        1.000000        0.02091661        0.00001386        0.00000256        0.00187170        0.00007694        0.00000084        0.00037262        0.00000923        0.00020323        0.00000820        0.00000000        0.00000282        0.00000031        0.00002282        0.00000055        0.00037549        0.00000005        0.00000002        0.00000244        0.00000000        0.00000301        0.00000007        0.00013244        0.00000024        0.00040044
      20         -1.061488        1.000000        0.00001244        0.00000001        0.00227509        0.00000154        0.00000035        0.00000034        0.00000239        0.01087818        0.00000002        0.00000013        0.00000000        0.00000031        0.00025889        0.00000040        0.00120659        0.00000127        0.00000000        0.00000001        0.00000001        0.00000000        0.00000018        0.00008269        0.00000001        0.00027320        0.00000100
      21         -1.061190        1.000000        0.00052271        0.00000003        0.00000050        0.00006949        0.00000006        0.00000010        0.00270515        0.00000272        0.00114051        0.00000000        0.00000000        0.00000000        0.00000006        0.00240934        0.00000037        0.00115478        0.00000000        0.00000000        0.00000000        0.00000000        0.00055703        0.00000002        0.00049608        0.00000007        0.00060786
      22         -1.060930        1.000000        0.00006244        0.00000014        0.00000017        0.00000053        0.00000002        0.00001288        0.00006468        0.00000003        0.00028408        0.00000004        0.00000001        0.00000024        0.00000003        0.00000423        0.00000026        0.00000037        0.00000000        0.00000024        0.00000000        0.00000003        0.00000643        0.00000000        0.00009621        0.00000000        0.00001506
      23         -1.060386        1.000000        0.00000167        0.00003901        0.00005960        0.00000011        0.00000303        0.00000002        0.00000012        0.00000691        0.00000162        0.00000807        0.00000000        0.00006793        0.00001227        0.00000024        0.00011176        0.00000025        0.00000003        0.00000000        0.00000045        0.00000000        0.00000000        0.00000001        0.00000055        0.00000076        0.00000010
      24         -1.060367        1.000000        0.00003785        0.00003705        0.00001259        0.00000235        0.00000269        0.00000393        0.00000528        0.00000137        0.00001556        0.00000799        0.00000000        0.00006661        0.00000267        0.00000015        0.00002479        0.00000006        0.00000004        0.00000008        0.00000079        0.00000001        0.00000202        0.00000001        0.00000452        0.00000034        0.00000018
      25         -1.060241        1.000000        0.00013439        0.00000174        0.00000184        0.00001212        0.00000010        0.00001781        0.00000517        0.00000017        0.00001782        0.00000036        0.00000002        0.00000312        0.00000039        0.00000026        0.00000343        0.00000039        0.00000000        0.00000034        0.00000007        0.00000005        0.00000282        0.00000000        0.00000345        0.00000007        0.00000003
      26         -1.059973        1.000000        0.00000003        0.00000350        0.00000372        0.00000001        0.00000017        0.00000000        0.00001788        0.00000023        0.00000547        0.00000054        0.00000000        0.00000526        0.00000073        0.00000652        0.00000566        0.00000413        0.00000000        0.00000000        0.00000002        0.00000000        0.00000330        0.00000000        0.00000255        0.00000002        0.00000483
      27         -1.059464        1.000000        0.00002326        0.00000005        0.00000016        0.00000662        0.00000000        0.00000035        0.00000000        0.00000001        0.00000004        0.00000001        0.00000000        0.00000007        0.00000003        0.00000010        0.00000021        0.00000009        0.00000000        0.00000001        0.00000000        0.00000000        0.00000011        0.00000000        0.00000000        0.00000000        0.00000004
      28         -1.059389        1.000000        0.00001128        0.00097783        0.00091369        0.00000006        0.00003490        0.00008135        0.00000167        0.00003808        0.00000570        0.00011246        0.00000009        0.00127479        0.00017290        0.00000000        0.00113974        0.00000001        0.00000014        0.00000154        0.00000039        0.00000023        0.00000087        0.00000002        0.00000223        0.00000040        0.00000006
      29         -1.059311        1.000000        0.00099224        0.00002043        0.00010335        0.00000482        0.00000072        0.01006930        0.00016258        0.00000419        0.00049638        0.00000229        0.00001068        0.00002650        0.00001965        0.00000042        0.00012774        0.00000041        0.00000000        0.00019124        0.00000001        0.00002723        0.00008318        0.00000000        0.00019150        0.00000005        0.00000701
      30         -1.059132        1.000000        0.00195461        0.00051467        0.00048331        0.00000998        0.00001637        0.00044673        0.00032869        0.00001750        0.00100250        0.00005536        0.00000050        0.00065509        0.00009167        0.00000077        0.00058192        0.00000082        0.00000007        0.00000848        0.00000023        0.00000121        0.00016697        0.00000001        0.00038352        0.00000024        0.00001401
      31         -1.058462        1.000000        0.00012448        0.00019464        0.00019209        0.00001185        0.00000504        0.00168340        0.00006874        0.00000550        0.00021050        0.00001837        0.00000169        0.00024170        0.00003766        0.00000011        0.00022085        0.00000006        0.00000002        0.00003200        0.00000000        0.00000456        0.00002225        0.00000002        0.00007272        0.00000001        0.00000580
      32         -1.058296        1.000000        0.00121170        0.00002702        0.00002336        0.00000086        0.00000083        0.00072583        0.00009906        0.00000085        0.00030087        0.00000252        0.00000073        0.00003827        0.00000585        0.00000024        0.00003076        0.00000037        0.00000001        0.00001381        0.00000027        0.00000197        0.00007137        0.00000009        0.00012235        0.00000029        0.00000123
      33         -1.058198        1.000000        0.00000306        0.00002431        0.00003494        0.00000000        0.00000062        0.00000198        0.00000064        0.00000085        0.00000057        0.00000214        0.00000000        0.00001997        0.00000427        0.00000004        0.00002972        0.00000003        0.00000000        0.00000004        0.00000170        0.00000001        0.00000037        0.00000023        0.00000018        0.00000148        0.00000007
      34         -1.058071        1.000000        0.00081241        0.00029390        0.00028858        0.00000017        0.00000620        0.00112401        0.00009292        0.00000648        0.00028389        0.00002579        0.00000110        0.00032037        0.00004865        0.00000018        0.00029337        0.00000023        0.00000001        0.00002141        0.00000189        0.00000305        0.00005718        0.00000015        0.00011073        0.00000162        0.00000207
      35         -1.057992        1.000000        0.00000078        0.00000029        0.00000002        0.00000002        0.00000001        0.00000027        0.00001476        0.00000000        0.00000324        0.00000003        0.00000000        0.00000026        0.00000000        0.00000710        0.00000001        0.00000413        0.00000000        0.00000001        0.00000001        0.00000000        0.00000617        0.00000000        0.00000345        0.00000001        0.00000754
      36         -1.057385        1.000000        0.00001039        0.00000058        0.00000062        0.00000084        0.00000001        0.00000495        0.00001085        0.00000001        0.00002063        0.00000005        0.00000000        0.00000066        0.00000011        0.00000002        0.00000064        0.00000019        0.00000000        0.00000009        0.00000000        0.00000001        0.00000152        0.00000000        0.00000930        0.00000000        0.00000513
      37         -1.057296        1.000000        0.00000095        0.00000004        0.00000003        0.00000010        0.00000000        0.00000030        0.00000189        0.00000000        0.00000590        0.00000000        0.00000000        0.00000004        0.00000001        0.00000061        0.00000003        0.00000019        0.00000000        0.00000001        0.00000000        0.00000000        0.00000131        0.00000000        0.00000456        0.00000000        0.00000113
      38         -1.055645        1.000000        0.00000060        0.00000015        0.00000016        0.00000001        0.00000020        0.00000050        0.00000003        0.00000026        0.00000009        0.00000010        0.00000026        0.00000021        0.00000002        0.00000001        0.00000031        0.00000001        0.00000007        0.00000179        0.00000003        0.00000026        0.00000000        0.00000010        0.00000009        0.00000001        0.00000004
      39         -1.055586        1.000000        0.00000002        0.00000023        0.00000023        0.00000000        0.00000029        0.00000059        0.00000000        0.00000035        0.00000000        0.00000013        0.00000020        0.00000028        0.00000003        0.00000000        0.00000038        0.00000000        0.00000010        0.00000144        0.00000005        0.00000021        0.00000000        0.00000014        0.00000000        0.00000001        0.00000000
      40         -1.055541        1.000000        0.00000000        0.00000048        0.00000052        0.00000000        0.00000045        0.00000000        0.00000000        0.00000060        0.00000000        0.00000019        0.00000000        0.00000033        0.00000006        0.00000000        0.00000051        0.00000000        0.00000016        0.00000000        0.00000009        0.00000000        0.00000000        0.00000024        0.00000000        0.00000002        0.00000000
      41         -1.055436        1.000000        0.00001634        0.00000002        0.00000001        0.00000024        0.00000001        0.00000009        0.00000044        0.00000001        0.00000140        0.00000000        0.00000001        0.00000000        0.00000000        0.00000016        0.00000000        0.00000020        0.00000000        0.00000010        0.00000000        0.00000001        0.00000000        0.00000000        0.00000157        0.00000000        0.00000091
      42         -0.670724        1.000000        0.00013431        0.02304896        0.06099383        0.00022343        0.00461930        0.00002760        0.00000173        0.01234415        0.00000505        0.00141258        0.00000976        0.00428531        0.01286983        0.00002537        0.00224093        0.00004208        0.00036730        0.00000162        0.00222445        0.00000022        0.00002985        0.00000492        0.00000923        0.00684539        0.00000539
      43         -0.670661        1.000000        0.00001823        0.06115624        0.02327739        0.00002975        0.01214702        0.00000039        0.00000027        0.00466920        0.00000068        0.00374577        0.00000016        0.01138439        0.00491292        0.00000348        0.00085730        0.00000557        0.00097687        0.00000002        0.00587229        0.00000001        0.00000407        0.00000206        0.00000125        0.00260169        0.00000072
      44         -0.669204        1.000000        0.02751488        0.00028285        0.00017633        0.04934026        0.00004317        0.00000100        0.00042862        0.00002711        0.00125622        0.00001771        0.00000045        0.00005219        0.00003731        0.00558749        0.00000635        0.00925688        0.00000461        0.00000006        0.00002298        0.00000001        0.00607786        0.00000007        0.00216084        0.00001713        0.00094540
      45         -0.664198        1.000000        0.00000063        0.00000983        0.00001521        0.00000056        0.00000040        0.11030082        0.00000002        0.00000075        0.00000005        0.00000063        0.03123235        0.00000190        0.00000337        0.00000009        0.00000057        0.00000015        0.00000017        0.00477851        0.00000045        0.00068002        0.00000015        0.00000003        0.00000005        0.00000098        0.00000002
      46         -0.659475        1.000000        0.03032195        0.00000004        0.00000002        0.03639078        0.00000413        0.00000000        0.00008238        0.00000197        0.00022799        0.00000024        0.00000014        0.00000001        0.00000005        0.00221811        0.00000008        0.00375724        0.00000000        0.00000000        0.00000082        0.00000000        0.00701629        0.00000004        0.00005277        0.00000035        0.00586996
      47         -0.654736        1.000000        0.00000020        0.00430551        0.00020720        0.00000146        0.05660007        0.00000050        0.00000001        0.00275182        0.00000003        0.00540953        0.00000021        0.00010472        0.00019922        0.00000015        0.00006727        0.00000016        0.00000102        0.00000008        0.01026746        0.00000002        0.00000005        0.00006607        0.00000002        0.00043504        0.00000009
      48         -0.654717        1.000000        0.00000021        0.00020078        0.00415026        0.00000262        0.00261683        0.00000255        0.00000002        0.05467432        0.00000001        0.00025668        0.00000160        0.00000547        0.00409735        0.00000011        0.00134216        0.00000025        0.00000005        0.00000050        0.00047614        0.00000007        0.00000007        0.00132267        0.00000004        0.00866854        0.00000014
      49         -0.654413        1.000000        0.00008155        0.00000611        0.00000773        0.00238815        0.00004086        0.00000273        0.00004833        0.00005646        0.00014810        0.00000295        0.00000286        0.00000009        0.00000347        0.00001934        0.00000099        0.00003143        0.00000002        0.00000057        0.00000660        0.00000008        0.00008096        0.00000148        0.00004219        0.00000789        0.00015766
      50         -0.653987        1.000000        0.00000002        0.00247480        0.00147925        0.00000028        0.01170217        0.00000000        0.00000004        0.00708644        0.00000006        0.00087802        0.00000002        0.00005132        0.00048179        0.00000001        0.00009674        0.00000001        0.00001216        0.00000000        0.00178048        0.00000000        0.00000001        0.00020168        0.00000001        0.00089730        0.00000002
      51         -0.653932        1.000000        0.00000030        0.00152731        0.00268472        0.00001012        0.00736930        0.00000344        0.00000066        0.01310719        0.00000178        0.00054599        0.00000103        0.00003027        0.00087292        0.00000013        0.00018064        0.00000024        0.00000807        0.00000064        0.00112180        0.00000009        0.00000037        0.00037686        0.00000028        0.00165747        0.00000086
      52         -0.653678        1.000000        0.00006859        0.00000060        0.00000107        0.00002136        0.00000133        0.00000031        0.00026262        0.00000290        0.00078858        0.00000011        0.00000112        0.00000002        0.00000026        0.00014534        0.00000002        0.00024156        0.00000001        0.00000013        0.00000017        0.00000002        0.00007146        0.00000011        0.00001440        0.00000030        0.00010046
      53         -0.652168        1.000000        0.00000004        0.00000030        0.00000037        0.00000007        0.00000429        0.00000000        0.00046305        0.00000522        0.00016156        0.00000013        0.00000001        0.00000005        0.00000005        0.00004981        0.00000020        0.00002845        0.00000000        0.00000000        0.00000064        0.00000004        0.00000080        0.00000010        0.00000076        0.00000070        0.00000148
      54         -0.651985        1.000000        0.00000006        0.00021465        0.00013805        0.00000003        0.00158759        0.00000002        0.00000094        0.00100350        0.00000005        0.00000815        0.00000001        0.00000214        0.00000597        0.00000000        0.00000138        0.00000014        0.00003901        0.00000000        0.00020872        0.00000000        0.00000001        0.00007365        0.00000000        0.00008321        0.00000000
      55         -0.651975        1.000000        0.00000741        0.00009522        0.00018409        0.00000506        0.00077595        0.00000004        0.00000942        0.00146771        0.00002923        0.00000376        0.00000037        0.00000119        0.00000740        0.00000318        0.00000268        0.00000520        0.00002156        0.00000000        0.00010223        0.00000000        0.00000060        0.00011472        0.00000030        0.00011938        0.00000006
      56         -0.651914        1.000000        0.00030740        0.00000733        0.00000847        0.00021085        0.00005505        0.00004504        0.00032180        0.00006308        0.00093789        0.00000055        0.00008807        0.00000009        0.00000072        0.00010844        0.00000010        0.00018528        0.00000099        0.00001442        0.00000770        0.00000209        0.00003049        0.00000418        0.00000898        0.00000585        0.00000583
      57         -0.651605        1.000000        0.00000052        0.00000001        0.00000003        0.00000257        0.00000008        0.01190145        0.00000129        0.00000075        0.00000391        0.00000001        0.02270727        0.00000000        0.00000004        0.00000030        0.00000002        0.00000048        0.00000002        0.00378652        0.00000002        0.00054814        0.00000005        0.00000000        0.00000001        0.00000018        0.00000001
      58         -0.651464        1.000000        0.00003076        0.00000016        0.00000020        0.00017640        0.00000280        0.00000122        0.00000176        0.00000323        0.00000760        0.00000031        0.00000465        0.00000000        0.00000026        0.00000733        0.00000009        0.00001140        0.00000001        0.00000055        0.00000052        0.00000008        0.00001089        0.00000015        0.00000742        0.00000046        0.00002354
      59         -0.650613        1.000000        0.00000007        0.00020018        0.00020678        0.00000023        0.00181126        0.00000186        0.00000002        0.00182452        0.00000003        0.00015427        0.00000783        0.00005785        0.00003465        0.00000001        0.00017810        0.00000002        0.00001112        0.00000088        0.00029545        0.00000012        0.00000002        0.00000941        0.00000000        0.00030084        0.00000002