 DBCSR| Multiplication driver                                               XSMM
 DBCSR| Multrec recursion limit                                              512
 DBCSR| Multiplication stack size                                           1000
 DBCSR| Maximum elements for images                                    UNLIMITED
 DBCSR| Multiplicative factor virtual images                                   1
 DBCSR| Multiplication size stacks                                             3
 DBCSR| Number of 3D layers                                               SINGLE
 DBCSR| Use MPI memory allocation                                              T
 DBCSR| Use RMA algorithm                                                      F
 DBCSR| Use Communication thread                                               T
 DBCSR| Communication thread load                                             87


  **** **** ******  **  PROGRAM STARTED AT               2019-08-20 00:23:29.073
 ***** ** ***  *** **   PROGRAM STARTED ON                                 sm155
 **    ****   ******    PROGRAM STARTED BY                                npopov
 ***** **    ** ** **   PROGRAM PROCESS ID                                 16659
  **** **  *******  **  PROGRAM STARTED IN /home/npopov/babri-ng/vk/ii_d_tddft_v
                                           2

 CP2K| version string:                    CP2K version 7.0 (Development Version)
 CP2K| source code revision number:                                             
 CP2K| cp2kflags: libint fftw3 libxc parallel mpi2 scalapack xsmm libderiv_max_a
 CP2K|            m1=5 libint_max_am=6 max_contr=4
 CP2K| is freely available from                            https://www.cp2k.org/
 CP2K| Program compiled at                          Sat May 11 01:50:06 +08 2019
 CP2K| Program compiled on                                                 sm101
 CP2K| Program compiled for                                                np_gf
 CP2K| Data directory path                      /home/npopov/progs/cp2k-git/data
 CP2K| Input file name                                                  calc.inp

 GLOBAL| Force Environment number                                              1
 GLOBAL| Basis set file name            /home/npopov/progs/cp2k-git/data/BASIS_A
 GLOBAL| Potential file name            /home/npopov/progs/cp2k-git/data/GTH_POT
 GLOBAL| MM Potential file name                                     MM_POTENTIAL
 GLOBAL| Coordinate file name                                      __STD_INPUT__
 GLOBAL| Method name                                                        CP2K
 GLOBAL| Project name                                                        bbi
 GLOBAL| Preferred FFT library                                             FFTW3
 GLOBAL| Preferred diagonalization lib.                                       SL
 GLOBAL| Run type                                                         ENERGY
 GLOBAL| All-to-all communication in single precision                          F
 GLOBAL| FFTs using library dependent lengths                                  F
 GLOBAL| Global print level                                               MEDIUM
 GLOBAL| MPI I/O enabled                                                       T
 GLOBAL| Total number of message passing processes                           144
 GLOBAL| Number of threads for this process                                    1
 GLOBAL| This output is from process                                           0
 GLOBAL| CPU model name :  Intel(R) Xeon(R) CPU E5-2695 v4 @ 2.10GHz

 MEMORY| system memory details [Kb]
 MEMORY|                        rank 0           min           max       average
 MEMORY| MemTotal            132053440     132053428     132053440     132053437
 MEMORY| MemFree             127423568     127423568     127983712     127669287
 MEMORY| Buffers                103456          4280        103456         62984
 MEMORY| Cached                 476608         86316        476608        293331
 MEMORY| Slab                  2280976       2216512       2285056       2257686
 MEMORY| SReclaimable            93980         31276         99328         71490
 MEMORY| MemLikelyFree       128097612     128088824     128105852     128097093


 *** Fundamental physical constants (SI units) ***

 *** Literature: B. J. Mohr and B. N. Taylor,
 ***             CODATA recommended values of the fundamental physical
 ***             constants: 2006, Web Version 5.1
 ***             http://physics.nist.gov/constants

 Speed of light in vacuum [m/s]                             2.99792458000000E+08
 Magnetic constant or permeability of vacuum [N/A**2]       1.25663706143592E-06
 Electric constant or permittivity of vacuum [F/m]          8.85418781762039E-12
 Planck constant (h) [J*s]                                  6.62606896000000E-34
 Planck constant (h-bar) [J*s]                              1.05457162825177E-34
 Elementary charge [C]                                      1.60217648700000E-19
 Electron mass [kg]                                         9.10938215000000E-31
 Electron g factor [ ]                                     -2.00231930436220E+00
 Proton mass [kg]                                           1.67262163700000E-27
 Fine-structure constant                                    7.29735253760000E-03
 Rydberg constant [1/m]                                     1.09737315685270E+07
 Avogadro constant [1/mol]                                  6.02214179000000E+23
 Boltzmann constant [J/K]                                   1.38065040000000E-23
 Atomic mass unit [kg]                                      1.66053878200000E-27
 Bohr radius [m]                                            5.29177208590000E-11

 *** Conversion factors ***

 [u] -> [a.u.]                                              1.82288848426455E+03
 [Angstrom] -> [Bohr] = [a.u.]                              1.88972613288564E+00
 [a.u.] = [Bohr] -> [Angstrom]                              5.29177208590000E-01
 [a.u.] -> [s]                                              2.41888432650478E-17
 [a.u.] -> [fs]                                             2.41888432650478E-02
 [a.u.] -> [J]                                              4.35974393937059E-18
 [a.u.] -> [N]                                              8.23872205491840E-08
 [a.u.] -> [K]                                              3.15774647902944E+05
 [a.u.] -> [kJ/mol]                                         2.62549961709828E+03
 [a.u.] -> [kcal/mol]                                       6.27509468713739E+02
 [a.u.] -> [Pa]                                             2.94210107994716E+13
 [a.u.] -> [bar]                                            2.94210107994716E+08
 [a.u.] -> [atm]                                            2.90362800883016E+08
 [a.u.] -> [eV]                                             2.72113838565563E+01
 [a.u.] -> [Hz]                                             6.57968392072181E+15
 [a.u.] -> [1/cm] (wave numbers)                            2.19474631370540E+05
 [a.u./Bohr**2] -> [1/cm]                                   5.14048714338585E+03
 

 CELL_TOP| Volume [angstrom^3]:                                         7019.624
 CELL_TOP| Vector a [angstrom    20.198     0.000     0.000    |a| =      20.198
 CELL_TOP| Vector b [angstrom     0.000    17.342     0.000    |b| =      17.342
 CELL_TOP| Vector c [angstrom     0.000     0.000    20.040    |c| =      20.040
 CELL_TOP| Angle (b,c), alpha [degree]:                                   90.000
 CELL_TOP| Angle (a,c), beta  [degree]:                                   90.000
 CELL_TOP| Angle (a,b), gamma [degree]:                                   90.000
 CELL_TOP| Numerically orthorhombic:                                         YES

 GENERATE|  Preliminary Number of Bonds generated:                             0
 GENERATE|  Achieved consistency in connectivity generation.

 CELL| Volume [angstrom^3]:                                             7019.624
 CELL| Vector a [angstrom]:      20.198     0.000     0.000    |a| =      20.198
 CELL| Vector b [angstrom]:       0.000    17.342     0.000    |b| =      17.342
 CELL| Vector c [angstrom]:       0.000     0.000    20.040    |c| =      20.040
 CELL| Angle (b,c), alpha [degree]:                                       90.000
 CELL| Angle (a,c), beta  [degree]:                                       90.000
 CELL| Angle (a,b), gamma [degree]:                                       90.000
 CELL| Numerically orthorhombic:                                             YES

 CELL_REF| Volume [angstrom^3]:                                         7019.624
 CELL_REF| Vector a [angstrom    20.198     0.000     0.000    |a| =      20.198
 CELL_REF| Vector b [angstrom     0.000    17.342     0.000    |b| =      17.342
 CELL_REF| Vector c [angstrom     0.000     0.000    20.040    |c| =      20.040
 CELL_REF| Angle (b,c), alpha [degree]:                                   90.000
 CELL_REF| Angle (a,c), beta  [degree]:                                   90.000
 CELL_REF| Angle (a,b), gamma [degree]:                                   90.000
 CELL_REF| Numerically orthorhombic:                                         YES

 *******************************************************************************
 *******************************************************************************
 **                                                                           **
 **     #####                         ##              ##                      **
 **    ##   ##            ##          ##              ##                      **
 **   ##     ##                       ##            ######                    **
 **   ##     ##  ##   ##  ##   #####  ##  ##   ####   ##    #####    #####    **
 **   ##     ##  ##   ##  ##  ##      ## ##   ##      ##   ##   ##  ##   ##   **
 **   ##  ## ##  ##   ##  ##  ##      ####     ###    ##   ######   ######    **
 **    ##  ###   ##   ##  ##  ##      ## ##      ##   ##   ##       ##        **
 **     #######   #####   ##   #####  ##  ##  ####    ##    #####   ##        **
 **           ##                                                    ##        **
 **                                                                           **
 **                                                ... make the atoms dance   **
 **                                                                           **
 **            Copyright (C) by CP2K developers group (2000 - 2018)           **
 **                                                                           **
 *******************************************************************************

 DFT| Spin unrestricted (spin-polarized) Kohn-Sham calculation               UKS
 DFT| Multiplicity                                                             2
 DFT| Number of spin states                                                    2
 DFT| Charge                                                                   1
 DFT| Self-interaction correction (SIC)                                       NO
 DFT| Cutoffs: density                                              1.000000E-10
 DFT|          gradient                                             1.000000E-10
 DFT|          tau                                                  1.000000E-10
 DFT|          cutoff_smoothing_range                               0.000000E+00
 DFT| XC density smoothing                                                  NONE
 DFT| XC derivatives                                                          PW
 FUNCTIONAL| ROUTINE=NEW
 FUNCTIONAL| PBE:
 FUNCTIONAL| J.P.Perdew, K.Burke, M.Ernzerhof, Phys. Rev. Letter, vol. 77, n 18,
 FUNCTIONAL|  pp. 3865-3868, (1996)sx=0.000sc=1.000{spin polarized}             
 FUNCTIONAL| XWPBE:
 FUNCTIONAL| Jochen Heyd and Gustavo E. Scuseria, J. Chem. Phys., 120, 7274 {LSD
 FUNCTIONAL|  version}                                                          

 QS| Method:                                                                 GPW
 QS| Density plane wave grid type                        NON-SPHERICAL FULLSPACE
 QS| Number of grid levels:                                                    5
 QS| Density cutoff [a.u.]:                                                300.0
 QS| Multi grid cutoff [a.u.]: 1) grid level                               300.0
 QS|                           2) grid level                               100.0
 QS|                           3) grid level                                33.3
 QS|                           4) grid level                                11.1
 QS|                           5) grid level                                 3.7
 QS| Grid level progression factor:                                          3.0
 QS| Relative density cutoff [a.u.]:                                        30.0
 QS| Consistent realspace mapping and integration 
 QS| Interaction thresholds: eps_pgf_orb:                                1.0E-23
 QS|                         eps_filter_matrix:                          1.0E-23
 QS|                         eps_core_charge:                            1.0E-25
 QS|                         eps_rho_gspace:                             1.0E-23
 QS|                         eps_rho_rspace:                             1.0E-23
 QS|                         eps_gvg_rspace:                             3.2E-12
 QS|                         eps_ppl:                                    1.0E-02
 QS|                         eps_ppnl:                                   3.2E-14


 ATOMIC KIND INFORMATION

  1. Atomic kind: I                                     Number of atoms:      64

     Orbital Basis Set                                     TZVP-MOLOPT-SR-GTH-q7

       Number of orbital shell sets:                                           1
       Number of orbital shells:                                               7
       Number of primitive Cartesian functions:                                5
       Number of Cartesian basis functions:                                   18
       Number of spherical basis functions:                                   17
       Norm type:                                                              2

       Normalised Cartesian orbitals:

                        Set   Shell   Orbital            Exponent    Coefficient

                          1       1    2s                0.966173      -0.701422
                                                         0.828886       0.528274
                                                         0.367159      -0.018253
                                                         0.201369       0.160907
                                                         0.083015       0.040047

                          1       2    3s                0.966173      -0.025197
                                                         0.828886       0.169037
                                                         0.367159      -0.206498
                                                         0.201369      -0.038615
                                                         0.083015      -0.050840

                          1       3    4s                0.966173       0.426946
                                                         0.828886       0.148982
                                                         0.367159      -0.253867
                                                         0.201369      -0.008838
                                                         0.083015       0.123006

                          1       4    3px               0.966173      -1.115785
                                                         0.828886       1.426576
                                                         0.367159       0.062901
                                                         0.201369      -0.098938
                                                         0.083015      -0.047173
                          1       4    3py               0.966173      -1.115785
                                                         0.828886       1.426576
                                                         0.367159       0.062901
                                                         0.201369      -0.098938
                                                         0.083015      -0.047173
                          1       4    3pz               0.966173      -1.115785
                                                         0.828886       1.426576
                                                         0.367159       0.062901
                                                         0.201369      -0.098938
                                                         0.083015      -0.047173

                          1       5    4px               0.966173       0.238061
                                                         0.828886       0.444119
                                                         0.367159       0.147362
                                                         0.201369      -0.135968
                                                         0.083015       0.066343
                          1       5    4py               0.966173       0.238061
                                                         0.828886       0.444119
                                                         0.367159       0.147362
                                                         0.201369      -0.135968
                                                         0.083015       0.066343
                          1       5    4pz               0.966173       0.238061
                                                         0.828886       0.444119
                                                         0.367159       0.147362
                                                         0.201369      -0.135968
                                                         0.083015       0.066343

                          1       6    5px               0.966173       0.550563
                                                         0.828886      -0.195221
                                                         0.367159      -0.078386
                                                         0.201369      -0.118380
                                                         0.083015      -0.022369
                          1       6    5py               0.966173       0.550563
                                                         0.828886      -0.195221
                                                         0.367159      -0.078386
                                                         0.201369      -0.118380
                                                         0.083015      -0.022369
                          1       6    5pz               0.966173       0.550563
                                                         0.828886      -0.195221
                                                         0.367159      -0.078386
                                                         0.201369      -0.118380
                                                         0.083015      -0.022369

                          1       7    4dx2              0.966173       0.733747
                                                         0.828886      -0.552421
                                                         0.367159      -0.145892
                                                         0.201369      -0.031404
                                                         0.083015      -0.005571
                          1       7    4dxy              0.966173       1.270888
                                                         0.828886      -0.956822
                                                         0.367159      -0.252692
                                                         0.201369      -0.054394
                                                         0.083015      -0.009650
                          1       7    4dxz              0.966173       1.270888
                                                         0.828886      -0.956822
                                                         0.367159      -0.252692
                                                         0.201369      -0.054394
                                                         0.083015      -0.009650
                          1       7    4dy2              0.966173       0.733747
                                                         0.828886      -0.552421
                                                         0.367159      -0.145892
                                                         0.201369      -0.031404
                                                         0.083015      -0.005571
                          1       7    4dyz              0.966173       1.270888
                                                         0.828886      -0.956822
                                                         0.367159      -0.252692
                                                         0.201369      -0.054394
                                                         0.083015      -0.009650
                          1       7    4dz2              0.966173       0.733747
                                                         0.828886      -0.552421
                                                         0.367159      -0.145892
                                                         0.201369      -0.031404
                                                         0.083015      -0.005571

     Auxiliary Fit Basis Set                                                FIT9

       Number of orbital shell sets:                                           9
       Number of orbital shells:                                               9
       Number of primitive Cartesian functions:                                9
       Number of Cartesian basis functions:                                   22
       Number of spherical basis functions:                                   21
       Norm type:                                                              2

       Normalised Cartesian orbitals:

                        Set   Shell   Orbital            Exponent    Coefficient

                          1       1    1s                0.092912       0.119940

                          2       1    1s                0.261180       0.260385

                          3       1    1s                1.520486       0.975881

                          4       1    1s                2.484337       1.410321

                          5       1    1px               0.090135       0.070397
                          5       1    1py               0.090135       0.070397
                          5       1    1pz               0.090135       0.070397

                          6       1    1px               0.282530       0.293610
                          6       1    1py               0.282530       0.293610
                          6       1    1pz               0.282530       0.293610

                          7       1    1px               2.059596       3.516961
                          7       1    1py               2.059596       3.516961
                          7       1    1pz               2.059596       3.516961

                          8       1    1px               2.811618       5.189618
                          8       1    1py               2.811618       5.189618
                          8       1    1pz               2.811618       5.189618

                          9       1    1dx2              0.258472       0.154217
                          9       1    1dxy              0.258472       0.267112
                          9       1    1dxz              0.258472       0.267112
                          9       1    1dy2              0.258472       0.154217
                          9       1    1dyz              0.258472       0.267112
                          9       1    1dz2              0.258472       0.154217

     GTH Potential information for                                    GTH-PBE-q7

       Description:                       Goedecker-Teter-Hutter pseudopotential
                                           Goedecker et al., PRB 54, 1703 (1996)
                                          Hartwigsen et al., PRB 58, 3641 (1998)
                                                      Krack, TCA 114, 145 (2005)

       Gaussian exponent of the core charge distribution:               1.594388
       Electronic configuration (s p d ...):                               2   5

       Parameters of the local part of the GTH pseudopotential:

                          rloc        C1          C2          C3          C4
                        0.560000    8.207102

       Parameters of the non-local part of the GTH pseudopotential:

                   l      r(l)      h(i,j,l)

                   0    0.531928    2.308146    1.003909   -0.959156
                                    1.003909   -2.856109    2.476530
                                   -0.959156    2.476530   -1.965685
                   1    0.589182    0.906482    0.425071
                                    0.425071   -0.502950
                   2    0.739721    0.479195

  2. Atomic kind: Ba                                    Number of atoms:      64

     Orbital Basis Set                                    TZVP-MOLOPT-SR-GTH-q10

       Number of orbital shell sets:                                           1
       Number of orbital shells:                                               8
       Number of primitive Cartesian functions:                                6
       Number of Cartesian basis functions:                                   19
       Number of spherical basis functions:                                   18
       Norm type:                                                              2

       Normalised Cartesian orbitals:

                        Set   Shell   Orbital            Exponent    Coefficient

                          1       1    2s                1.099107       1.203910
                                                         1.042416      -2.281486
                                                         0.923816       0.603764
                                                         0.409515       0.721861
                                                         0.166001      -0.215201
                                                         0.038868       0.055199

                          1       2    3s                1.099107       0.188406
                                                         1.042416      -0.058781
                                                         0.923816      -0.071848
                                                         0.409515      -0.182307
                                                         0.166001       0.061747
                                                         0.038868       0.058950

                          1       3    4s                1.099107       0.286284
                                                         1.042416      -0.400298
                                                         0.923816       0.316080
                                                         0.409515      -0.349929
                                                         0.166001       0.034613
                                                         0.038868      -0.041385

                          1       4    5s                1.099107       0.103627
                                                         1.042416      -0.060610
                                                         0.923816      -0.042568
                                                         0.409515       0.121559
                                                         0.166001       0.148896
                                                         0.038868      -0.009763

                          1       5    3px               1.099107       0.037255
                                                         1.042416       2.080023
                                                         0.923816      -1.867058
                                                         0.409515      -0.283953
                                                         0.166001      -0.062025
                                                         0.038868       0.012622
                          1       5    3py               1.099107       0.037255
                                                         1.042416       2.080023
                                                         0.923816      -1.867058
                                                         0.409515      -0.283953
                                                         0.166001      -0.062025
                                                         0.038868       0.012622
                          1       5    3pz               1.099107       0.037255
                                                         1.042416       2.080023
                                                         0.923816      -1.867058
                                                         0.409515      -0.283953
                                                         0.166001      -0.062025
                                                         0.038868       0.012622

                          1       6    4px               1.099107       0.476978
                                                         1.042416      -0.471787
                                                         0.923816       0.087207
                                                         0.409515      -0.129822
                                                         0.166001       0.040162
                                                         0.038868       0.022355
                          1       6    4py               1.099107       0.476978
                                                         1.042416      -0.471787
                                                         0.923816       0.087207
                                                         0.409515      -0.129822
                                                         0.166001       0.040162
                                                         0.038868       0.022355
                          1       6    4pz               1.099107       0.476978
                                                         1.042416      -0.471787
                                                         0.923816       0.087207
                                                         0.409515      -0.129822
                                                         0.166001       0.040162
                                                         0.038868       0.022355

                          1       7    5px               1.099107       0.411489
                                                         1.042416      -0.798990
                                                         0.923816      -0.292007
                                                         0.409515       0.605919
                                                         0.166001      -0.301207
                                                         0.038868       0.017943
                          1       7    5py               1.099107       0.411489
                                                         1.042416      -0.798990
                                                         0.923816      -0.292007
                                                         0.409515       0.605919
                                                         0.166001      -0.301207
                                                         0.038868       0.017943
                          1       7    5pz               1.099107       0.411489
                                                         1.042416      -0.798990
                                                         0.923816      -0.292007
                                                         0.409515       0.605919
                                                         0.166001      -0.301207
                                                         0.038868       0.017943

                          1       8    4dx2              1.099107       2.668458
                                                         1.042416      -2.755323
                                                         0.923816       0.229608
                                                         0.409515      -0.114085
                                                         0.166001      -0.042847
                                                         0.038868      -0.001242
                          1       8    4dxy              1.099107       4.621905
                                                         1.042416      -4.772360
                                                         0.923816       0.397692
                                                         0.409515      -0.197601
                                                         0.166001      -0.074213
                                                         0.038868      -0.002151
                          1       8    4dxz              1.099107       4.621905
                                                         1.042416      -4.772360
                                                         0.923816       0.397692
                                                         0.409515      -0.197601
                                                         0.166001      -0.074213
                                                         0.038868      -0.002151
                          1       8    4dy2              1.099107       2.668458
                                                         1.042416      -2.755323
                                                         0.923816       0.229608
                                                         0.409515      -0.114085
                                                         0.166001      -0.042847
                                                         0.038868      -0.001242
                          1       8    4dyz              1.099107       4.621905
                                                         1.042416      -4.772360
                                                         0.923816       0.397692
                                                         0.409515      -0.197601
                                                         0.166001      -0.074213
                                                         0.038868      -0.002151
                          1       8    4dz2              1.099107       2.668458
                                                         1.042416      -2.755323
                                                         0.923816       0.229608
                                                         0.409515      -0.114085
                                                         0.166001      -0.042847
                                                         0.038868      -0.001242

     Auxiliary Fit Basis Set                                               FIT11

       Number of orbital shell sets:                                          11
       Number of orbital shells:                                              11
       Number of primitive Cartesian functions:                               11
       Number of Cartesian basis functions:                                   26
       Number of spherical basis functions:                                   25
       Norm type:                                                              2

       Normalised Cartesian orbitals:

                        Set   Shell   Orbital            Exponent    Coefficient

                          1       1    1s                0.038875       0.062397

                          2       1    1s                0.117061       0.142633

                          3       1    1s                0.380944       0.345586

                          4       1    1s                1.814537       1.114255

                          5       1    1s                3.207545       1.708204

                          6       1    1px               0.040361       0.025786
                          6       1    1py               0.040361       0.025786
                          6       1    1pz               0.040361       0.025786

                          7       1    1px               0.173794       0.159950
                          7       1    1py               0.173794       0.159950
                          7       1    1pz               0.173794       0.159950

                          8       1    1px               0.458123       0.537240
                          8       1    1py               0.458123       0.537240
                          8       1    1pz               0.458123       0.537240

                          9       1    1px               2.159859       3.732260
                          9       1    1py               2.159859       3.732260
                          9       1    1pz               2.159859       3.732260

                         10       1    1px               3.110732       5.888686
                         10       1    1py               3.110732       5.888686
                         10       1    1pz               3.110732       5.888686

                         11       1    1dx2              0.221258       0.117485
                         11       1    1dxy              0.221258       0.203490
                         11       1    1dxz              0.221258       0.203490
                         11       1    1dy2              0.221258       0.117485
                         11       1    1dyz              0.221258       0.203490
                         11       1    1dz2              0.221258       0.117485

     GTH Potential information for                                   GTH-PBE-q10

       Description:                       Goedecker-Teter-Hutter pseudopotential
                                           Goedecker et al., PRB 54, 1703 (1996)
                                          Hartwigsen et al., PRB 58, 3641 (1998)
                                                      Krack, TCA 114, 145 (2005)

       Gaussian exponent of the core charge distribution:               1.714678
       Electronic configuration (s p d ...):                               4   6

       Parameters of the local part of the GTH pseudopotential:

                          rloc        C1          C2          C3          C4
                        0.540000   24.526781   -2.468670

       Parameters of the non-local part of the GTH pseudopotential:

                   l      r(l)      h(i,j,l)

                   0    0.492068    0.095151    1.169318
                                    1.169318   -1.509584
                   1    0.391489    0.800183   -1.616839
                                   -1.616839    1.913070
                   2    0.672173    0.388531
                   3    0.300498  -19.653795

  3. Atomic kind: Br                                    Number of atoms:      64

     Orbital Basis Set                                     TZVP-MOLOPT-SR-GTH-q7

       Number of orbital shell sets:                                           1
       Number of orbital shells:                                               7
       Number of primitive Cartesian functions:                                4
       Number of Cartesian basis functions:                                   18
       Number of spherical basis functions:                                   17
       Norm type:                                                              2

       Normalised Cartesian orbitals:

                        Set   Shell   Orbital            Exponent    Coefficient

                          1       1    2s                1.737393       0.362117
                                                         0.995743      -0.153130
                                                         0.337589      -0.298112
                                                         0.115887      -0.013796

                          1       2    3s                1.737393      -0.139822
                                                         0.995743      -0.044871
                                                         0.337589      -0.048004
                                                         0.115887       0.165179

                          1       3    4s                1.737393       0.394921
                                                         0.995743       0.447720
                                                         0.337589      -0.006658
                                                         0.115887       0.010199

                          1       4    3px               1.737393       0.557592
                                                         0.995743      -0.382741
                                                         0.337589      -0.212526
                                                         0.115887      -0.039000
                          1       4    3py               1.737393       0.557592
                                                         0.995743      -0.382741
                                                         0.337589      -0.212526
                                                         0.115887      -0.039000
                          1       4    3pz               1.737393       0.557592
                                                         0.995743      -0.382741
                                                         0.337589      -0.212526
                                                         0.115887      -0.039000

                          1       5    4px               1.737393       0.574911
                                                         0.995743      -0.062395
                                                         0.337589      -0.335231
                                                         0.115887       0.138402
                          1       5    4py               1.737393       0.574911
                                                         0.995743      -0.062395
                                                         0.337589      -0.335231
                                                         0.115887       0.138402
                          1       5    4pz               1.737393       0.574911
                                                         0.995743      -0.062395
                                                         0.337589      -0.335231
                                                         0.115887       0.138402

                          1       6    5px               1.737393      -2.213190
                                                         0.995743       2.813170
                                                         0.337589      -0.331858
                                                         0.115887      -0.039073
                          1       6    5py               1.737393      -2.213190
                                                         0.995743       2.813170
                                                         0.337589      -0.331858
                                                         0.115887      -0.039073
                          1       6    5pz               1.737393      -2.213190
                                                         0.995743       2.813170
                                                         0.337589      -0.331858
                                                         0.115887      -0.039073

                          1       7    4dx2              1.737393       0.429240
                                                         0.995743      -0.573909
                                                         0.337589      -0.175927
                                                         0.115887      -0.005258
                          1       7    4dxy              1.737393       0.743465
                                                         0.995743      -0.994040
                                                         0.337589      -0.304714
                                                         0.115887      -0.009108
                          1       7    4dxz              1.737393       0.743465
                                                         0.995743      -0.994040
                                                         0.337589      -0.304714
                                                         0.115887      -0.009108
                          1       7    4dy2              1.737393       0.429240
                                                         0.995743      -0.573909
                                                         0.337589      -0.175927
                                                         0.115887      -0.005258
                          1       7    4dyz              1.737393       0.743465
                                                         0.995743      -0.994040
                                                         0.337589      -0.304714
                                                         0.115887      -0.009108
                          1       7    4dz2              1.737393       0.429240
                                                         0.995743      -0.573909
                                                         0.337589      -0.175927
                                                         0.115887      -0.005258

     Auxiliary Fit Basis Set                                                FIT9

       Number of orbital shell sets:                                           9
       Number of orbital shells:                                               9
       Number of primitive Cartesian functions:                                9
       Number of Cartesian basis functions:                                   22
       Number of spherical basis functions:                                   21
       Norm type:                                                              2

       Normalised Cartesian orbitals:

                        Set   Shell   Orbital            Exponent    Coefficient

                          1       1    1s                0.122566       0.147634

                          2       1    1s                0.361177       0.332047

                          3       1    1s                2.156140       1.268142

                          4       1    1s                4.145196       2.070470

                          5       1    1px               0.119911       0.100580
                          5       1    1py               0.119911       0.100580
                          5       1    1pz               0.119911       0.100580

                          6       1    1px               0.413661       0.472874
                          6       1    1py               0.413661       0.472874
                          6       1    1pz               0.413661       0.472874

                          7       1    1px               4.056727       8.206536
                          7       1    1py               4.056727       8.206536
                          7       1    1pz               4.056727       8.206536

                          8       1    1px               5.668858      12.468365
                          8       1    1py               5.668858      12.468365
                          8       1    1pz               5.668858      12.468365

                          9       1    1dx2              0.426145       0.369943
                          9       1    1dxy              0.426145       0.640761
                          9       1    1dxz              0.426145       0.640761
                          9       1    1dy2              0.426145       0.369943
                          9       1    1dyz              0.426145       0.640761
                          9       1    1dz2              0.426145       0.369943

     GTH Potential information for                                    GTH-PBE-q7

       Description:                       Goedecker-Teter-Hutter pseudopotential
                                           Goedecker et al., PRB 54, 1703 (1996)
                                          Hartwigsen et al., PRB 58, 3641 (1998)
                                                      Krack, TCA 114, 145 (2005)

       Gaussian exponent of the core charge distribution:               2.000000
       Electronic configuration (s p d ...):                               2   5

       Parameters of the local part of the GTH pseudopotential:

                          rloc        C1          C2          C3          C4
                        0.500000

       Parameters of the non-local part of the GTH pseudopotential:

                   l      r(l)      h(i,j,l)

                   0    0.438039    6.078556    0.330498   -1.238382
                                    0.330498   -2.440900    3.197489
                                   -1.238382    3.197489   -2.537928
                   1    0.453136    2.459304    0.522753
                                    0.522753   -0.618530
                   2    0.567714    0.559266


 MOLECULE KIND INFORMATION


 All atoms are their own molecule, skipping detailed information


 TOTAL NUMBERS AND MAXIMUM NUMBERS

  Total number of            - Atomic kinds:                                   3
                             - Atoms:                                        192
                             - Shell sets:                                   192
                             - Shells:                                      1408
                             - Primitive Cartesian functions:                960
                             - Cartesian basis functions:                   3520
                             - Spherical basis functions:                   3328

  Maximum angular momentum of- Orbital basis functions:                        2
                             - Local part of the GTH pseudopotential:          2
                             - Non-local part of the GTH pseudopotential:      4

  AUX_FIT ADMM-Basis: 
  Total number of            - Shell sets:                                  1856
                             - Shells:                                      1856
                             - Primitive Cartesian functions:               1856
                             - Cartesian basis functions:                   4480
                             - Spherical basis functions:                   4288
                               Maximum angular momentum                        2


 MODULE QUICKSTEP:  ATOMIC COORDINATES IN angstrom

  Atom  Kind  Element       X           Y           Z          Z(eff)       Mass

       1     1 I   53    1.260374    0.249377    6.708624      7.00     126.9045
       2     1 I   53    1.259004    0.241906   16.734136      7.00     126.9045
       3     1 I   53    1.272064    8.917819    6.708064      7.00     126.9045
       4     1 I   53    1.259258    8.919169   16.732111      7.00     126.9045
       5     1 I   53    6.311850    0.246156    6.713582      7.00     126.9045
       6     1 I   53    6.298702    0.240588   16.748784      7.00     126.9045
       7     1 I   53    6.322363    8.912853    6.715153      7.00     126.9045
       8     1 I   53    6.683746    8.785623   16.387616      7.00     126.9045
       9     1 I   53   11.363714    0.246396    6.708066      7.00     126.9045
      10     1 I   53   11.383864    0.238520   16.737972      7.00     126.9045
      11     1 I   53   11.339267    8.915677    6.752824      7.00     126.9045
      12     1 I   53   11.328131    8.913359   16.715648      7.00     126.9045
      13     1 I   53   16.409637    0.247010    6.709551      7.00     126.9045
      14     1 I   53   16.409395    0.253746   16.729767      7.00     126.9045
      15     1 I   53   16.408733    8.920703    6.712599      7.00     126.9045
      16     1 I   53   16.409938    8.917789   16.731104      7.00     126.9045
      17     1 I   53    3.809570    8.426303    3.267109      7.00     126.9045
      18     1 I   53    3.820379    8.428497   13.344222      7.00     126.9045
      19     1 I   53    3.785109   17.095583    3.311885      7.00     126.9045
      20     1 I   53    3.764914   17.103487   13.322027      7.00     126.9045
      21     1 I   53    8.826470    8.429174    3.304798      7.00     126.9045
      22     1 I   53    8.464794    8.557204   13.672309      7.00     126.9045
      23     1 I   53    8.836988   17.095846    3.306371      7.00     126.9045
      24     1 I   53    8.850189   17.101391   13.311256      7.00     126.9045
      25     1 I   53   13.876762    8.424187    3.311919      7.00     126.9045
      26     1 I   53   13.889504    8.422870   13.327866      7.00     126.9045
      27     1 I   53   13.888395   17.092641    3.311328      7.00     126.9045
      28     1 I   53   13.889730   17.100071   13.325890      7.00     126.9045
      29     1 I   53   18.938430    8.421269    3.307368      7.00     126.9045
      30     1 I   53   18.937234    8.424217   13.328949      7.00     126.9045
      31     1 I   53   18.937515   17.094993    3.310412      7.00     126.9045
      32     1 I   53   18.937790   17.088281   13.330265      7.00     126.9045
      33     1 I   53    3.799408    4.115376    1.675823      7.00     126.9045
      34     1 I   53    3.773367    4.082548   11.729632      7.00     126.9045
      35     1 I   53    3.778167   12.769465    1.732941      7.00     126.9045
      36     1 I   53    3.768785   12.790392   11.689897      7.00     126.9045
      37     1 I   53    8.836770    4.088913    1.696298      7.00     126.9045
      38     1 I   53    8.845879    4.090638   11.721713      7.00     126.9045
      39     1 I   53    8.843067   12.758803    1.706935      7.00     126.9045
      40     1 I   53    8.824012   12.776704   11.718109      7.00     126.9045
      41     1 I   53   13.882288    4.089698    1.700929      7.00     126.9045
      42     1 I   53   13.904264    4.074656   11.716898      7.00     126.9045
      43     1 I   53   13.886485   12.757440    1.707343      7.00     126.9045
      44     1 I   53   13.857077   12.742341   11.734728      7.00     126.9045
      45     1 I   53   18.949615    4.097531    1.689627      7.00     126.9045
      46     1 I   53   18.931556    4.086225   11.718002      7.00     126.9045
      47     1 I   53   18.937827   12.757827    1.702175      7.00     126.9045
      48     1 I   53   18.940689   12.757363   11.726662      7.00     126.9045
      49     1 I   53    1.262309    4.584604    8.312650      7.00     126.9045
      50     1 I   53    1.291728    4.599725   18.325321      7.00     126.9045
      51     1 I   53    1.266505   13.252300    8.319065      7.00     126.9045
      52     1 I   53    1.244515   13.267356   18.343114      7.00     126.9045
      53     1 I   53    6.305834    4.583303    8.313121      7.00     126.9045
      54     1 I   53    6.324909    4.565129   18.341959      7.00     126.9045
      55     1 I   53    6.312099   13.253130    8.323673      7.00     126.9045
      56     1 I   53    6.302909   13.251362   18.338296      7.00     126.9045
      57     1 I   53   11.370690    4.572531    8.287007      7.00     126.9045
      58     1 I   53   11.380063    4.551617   18.370112      7.00     126.9045
      59     1 I   53   11.349329   13.226599    8.344191      7.00     126.9045
      60     1 I   53   11.375478   13.259500   18.330312      7.00     126.9045
      61     1 I   53   16.409341    4.584185    8.317818      7.00     126.9045
      62     1 I   53   16.406512    4.584622   18.333332      7.00     126.9045
      63     1 I   53   16.397538   13.244471    8.330374      7.00     126.9045
      64     1 I   53   16.415627   13.255789   18.342008      7.00     126.9045
      65     2 Ba  56    1.256138    2.340795    3.787418     10.00     137.3270
      66     2 Ba  56    1.245443    2.321474   13.799447     10.00     137.3270
      67     2 Ba  56    1.248272   11.005816    3.806731     10.00     137.3270
      68     2 Ba  56    1.250499   10.995240   13.819454     10.00     137.3270
      69     2 Ba  56    6.314848    2.334821    3.791955     10.00     137.3270
      70     2 Ba  56    6.305753    2.295394   13.803643     10.00     137.3270
      71     2 Ba  56    6.322127   11.002181    3.759620     10.00     137.3270
      72     2 Ba  56    6.214609   11.251989   13.657108     10.00     137.3270
      73     2 Ba  56   11.363246    2.337738    3.788548     10.00     137.3270
      74     2 Ba  56   11.377755    2.321328   13.788259     10.00     137.3270
      75     2 Ba  56   11.365173   11.009088    3.799755     10.00     137.3270
      76     2 Ba  56   11.390337   11.076782   13.866258     10.00     137.3270
      77     2 Ba  56   16.412625    2.334155    3.783530     10.00     137.3270
      78     2 Ba  56   16.416909    2.333460   13.812356     10.00     137.3270
      79     2 Ba  56   16.410049   11.002957    3.796540     10.00     137.3270
      80     2 Ba  56   16.418994   11.002880   13.799898     10.00     137.3270
      81     2 Ba  56    3.783620    6.332941    6.220400     10.00     137.3270
      82     2 Ba  56    3.758357    6.264970   16.193589     10.00     137.3270
      83     2 Ba  56    3.785511   15.004297    6.231542     10.00     137.3270
      84     2 Ba  56    3.771012   15.020686   16.271627     10.00     137.3270
      85     2 Ba  56    8.826616    6.339853    6.260318     10.00     137.3270
      86     2 Ba  56    8.933995    6.089455   16.403255     10.00     137.3270
      87     2 Ba  56    8.833833   15.007203    6.228117     10.00     137.3270
      88     2 Ba  56    8.842910   15.046444   16.256300     10.00     137.3270
      89     2 Ba  56   13.900577    6.336216    6.213305     10.00     137.3270
      90     2 Ba  56   13.898441    6.346724   16.240478     10.00     137.3270
      91     2 Ba  56   13.892720   15.001223    6.232669     10.00     137.3270
      92     2 Ba  56   13.903359   15.020500   16.260425     10.00     137.3270
      93     2 Ba  56   18.937230    6.339079    6.223589     10.00     137.3270
      94     2 Ba  56   18.928349    6.339153   16.260011     10.00     137.3270
      95     2 Ba  56   18.934657   15.007856    6.236577     10.00     137.3270
      96     2 Ba  56   18.930434   15.008495   16.247526     10.00     137.3270
      97     2 Ba  56    1.296571    6.672185    1.189824     10.00     137.3270
      98     2 Ba  56    1.247621    6.669940   11.233135     10.00     137.3270
      99     2 Ba  56    1.245513   15.357784    1.242608     10.00     137.3270
     100     2 Ba  56    1.243991   15.356166   11.243575     10.00     137.3270
     101     2 Ba  56    6.320272    6.675018    1.235926     10.00     137.3270
     102     2 Ba  56    6.235171    6.613604   11.238133     10.00     137.3270
     103     2 Ba  56    6.308570   15.344586    1.236790     10.00     137.3270
     104     2 Ba  56    6.309561   15.391513   11.201734     10.00     137.3270
     105     2 Ba  56   11.364640    6.675615    1.246480     10.00     137.3270
     106     2 Ba  56   11.450960    6.567702   11.161352     10.00     137.3270
     107     2 Ba  56   11.375896   15.341463    1.240533     10.00     137.3270
     108     2 Ba  56   11.366639   15.357131   11.240660     10.00     137.3270
     109     2 Ba  56   16.412997    6.665323    1.219173     10.00     137.3270
     110     2 Ba  56   16.432866    6.673098   11.246384     10.00     137.3270
     111     2 Ba  56   16.416403   15.338657    1.231066     10.00     137.3270
     112     2 Ba  56   16.410869   15.339579   11.237589     10.00     137.3270
     113     2 Ba  56    3.772849    2.000549    8.779481     10.00     137.3270
     114     2 Ba  56    3.782148    1.984881   18.819387     10.00     137.3270
     115     2 Ba  56    3.784069   10.666404    8.773502     10.00     137.3270
     116     2 Ba  56    3.697885   10.774414   18.898668     10.00     137.3270
     117     2 Ba  56    8.840163    1.997411    8.783209     10.00     137.3270
     118     2 Ba  56    8.839106    1.950437   18.858247     10.00     137.3270
     119     2 Ba  56    8.828464   10.667061    8.783945     10.00     137.3270
     120     2 Ba  56    8.913229   10.728193   18.822042     10.00     137.3270
     121     2 Ba  56   13.903340    1.984184    8.777390     10.00     137.3270
     122     2 Ba  56   13.904840    1.985777   18.816419     10.00     137.3270
     123     2 Ba  56   13.852291   10.669905    8.830256     10.00     137.3270
     124     2 Ba  56   13.901332   10.672170   18.826842     10.00     137.3270
     125     2 Ba  56   18.930882    2.003327    8.788979     10.00     137.3270
     126     2 Ba  56   18.936471    2.002375   18.822376     10.00     137.3270
     127     2 Ba  56   18.934278   10.676675    8.800869     10.00     137.3270
     128     2 Ba  56   18.914497   10.668959   18.813534     10.00     137.3270
     129     3 Br  35    1.268492    5.587989    4.312092      7.00      79.9040
     130     3 Br  35    1.239929    5.571042   14.336292      7.00      79.9040
     131     3 Br  35    1.259587   14.246476    4.339952      7.00      79.9040
     132     3 Br  35    1.275471   14.231521   14.359293      7.00      79.9040
     133     3 Br  35    6.318449    5.578384    4.337546      7.00      79.9040
     134     3 Br  35    6.357203    5.507456   14.374522      7.00      79.9040
     135     3 Br  35    6.312634   14.242704    4.332515      7.00      79.9040
     136     3 Br  35    6.291073   14.363489   14.339601      7.00      79.9040
     137     3 Br  35   11.348109    5.586948    4.343895      7.00      79.9040
     138     3 Br  35   11.326630    5.620209   14.315221      7.00      79.9040
     139     3 Br  35   11.363423   14.246247    4.343146      7.00      79.9040
     140     3 Br  35   11.369789   14.279693   14.359205      7.00      79.9040
     141     3 Br  35   16.417312    5.575199    4.322693      7.00      79.9040
     142     3 Br  35   16.414872    5.575900   14.350245      7.00      79.9040
     143     3 Br  35   16.412569   14.244743    4.336137      7.00      79.9040
     144     3 Br  35   16.408069   14.248212   14.343840      7.00      79.9040
     145     3 Br  35    3.785411    3.095744    5.676785      7.00      79.9040
     146     3 Br  35    3.778916    3.062197   15.700906      7.00      79.9040
     147     3 Br  35    3.800706   11.755052    5.676022      7.00      79.9040
     148     3 Br  35    3.822159   11.721877   15.744835      7.00      79.9040
     149     3 Br  35    8.836205    3.099297    5.687372      7.00      79.9040
     150     3 Br  35    8.857827    2.978459   15.720427      7.00      79.9040
     151     3 Br  35    8.830360   11.763579    5.682385      7.00      79.9040
     152     3 Br  35    8.791502   11.834167   15.685611      7.00      79.9040
     153     3 Br  35   13.889202    3.095526    5.679956      7.00      79.9040
     154     3 Br  35   13.873335    3.110506   15.700758      7.00      79.9040
     155     3 Br  35   13.880329   11.754000    5.707930      7.00      79.9040
     156     3 Br  35   13.908867   11.771012   15.723786      7.00      79.9040
     157     3 Br  35   18.934568    3.097246    5.683782      7.00      79.9040
     158     3 Br  35   18.939107    3.093846   15.716237      7.00      79.9040
     159     3 Br  35   18.929859   11.766757    5.697231      7.00      79.9040
     160     3 Br  35   18.932320   11.766100   15.709811      7.00      79.9040
     161     3 Br  35    1.264029    1.252512    0.679102      7.00      79.9040
     162     3 Br  35    1.254629    1.248749   10.690105      7.00      79.9040
     163     3 Br  35    1.235873    9.908404    0.693067      7.00      79.9040
     164     3 Br  35    1.275072    9.915864   10.706423      7.00      79.9040
     165     3 Br  35    6.301108    1.237583    0.686090      7.00      79.9040
     166     3 Br  35    6.308559    1.265800   10.684934      7.00      79.9040
     167     3 Br  35    6.323622    9.926975    0.578270      7.00      79.9040
     168     3 Br  35    6.318027    9.891401   10.695202      7.00      79.9040
     169     3 Br  35   11.375682    1.235433    0.682825      7.00      79.9040
     170     3 Br  35   11.371002    1.253582   10.682702      7.00      79.9040
     171     3 Br  35   11.378319    9.914096    0.685268      7.00      79.9040
     172     3 Br  35   11.257100    9.831784   10.831343      7.00      79.9040
     173     3 Br  35   16.417855    1.242158    0.680013      7.00      79.9040
     174     3 Br  35   16.413848    1.238486   10.700635      7.00      79.9040
     175     3 Br  35   16.409126    9.906474    0.684862      7.00      79.9040
     176     3 Br  35   16.405609    9.915394   10.696643      7.00      79.9040
     177     3 Br  35    3.770671    7.427879    9.334735      7.00      79.9040
     178     3 Br  35    3.891744    7.510129   19.228481      7.00      79.9040
     179     3 Br  35    3.773157   16.106602    9.337165      7.00      79.9040
     180     3 Br  35    3.777831   16.088441   19.377277      7.00      79.9040
     181     3 Br  35    8.825050    7.415092    9.441790      7.00      79.9040
     182     3 Br  35    8.831110    7.450519   19.364881      7.00      79.9040
     183     3 Br  35    8.847771   16.104424    9.333946      7.00      79.9040
     184     3 Br  35    8.840296   16.076196   19.375027      7.00      79.9040
     185     3 Br  35   13.912942    7.433566    9.326881      7.00      79.9040
     186     3 Br  35   13.873725    7.426164   19.353547      7.00      79.9040
     187     3 Br  35   13.884733   16.089487    9.340890      7.00      79.9040
     188     3 Br  35   13.894137   16.093305   19.369880      7.00      79.9040
     189     3 Br  35   18.938068    7.435485    9.335159      7.00      79.9040
     190     3 Br  35   18.941521    7.426590   19.363369      7.00      79.9040
     191     3 Br  35   18.929306   16.099866    9.339967      7.00      79.9040
     192     3 Br  35   18.933300   16.103536   19.359395      7.00      79.9040




 SCF PARAMETERS         Density guess:                                   RESTART
                        --------------------------------------------------------
                        max_scf:                                             500
                        max_scf_history:                                       0
                        max_diis:                                              4
                        --------------------------------------------------------
                        eps_scf:                                        1.00E-05
                        eps_scf_history:                                0.00E+00
                        eps_diis:                                       1.00E-01
                        eps_eigval:                                     1.00E-05
                        --------------------------------------------------------
                        level_shift [a.u.]:                                 0.00
                        --------------------------------------------------------
                        No outer SCF

 PW_GRID| Information for grid number                                          1
 PW_GRID| Grid distributed over                                   144 processors
 PW_GRID| Real space group dimensions                                   144    1
 PW_GRID| the grid is blocked:                                                NO
 PW_GRID| Cutoff [a.u.]                                                    300.0
 PW_GRID| spherical cutoff:                                                   NO
 PW_GRID|   Bounds   1           -150     149                Points:         300
 PW_GRID|   Bounds   2           -128     127                Points:         256
 PW_GRID|   Bounds   3           -150     149                Points:         300
 PW_GRID| Volume element (a.u.^3)  0.2056E-02     Volume (a.u.^3)     47370.7741
 PW_GRID| Grid span                                                    FULLSPACE
 PW_GRID|   Distribution                         Average         Max         Min
 PW_GRID|   G-Vectors                           160000.0      160200      159900
 PW_GRID|   G-Rays                                 533.3         534         533
 PW_GRID|   Real Space Points                   160000.0      230400      153600

 PW_GRID| Information for grid number                                          2
 PW_GRID| Grid distributed over                                   144 processors
 PW_GRID| Real space group dimensions                                   144    1
 PW_GRID| the grid is blocked:                                                NO
 PW_GRID| Cutoff [a.u.]                                                    100.0
 PW_GRID| spherical cutoff:                                                   NO
 PW_GRID|   Bounds   1            -90      89                Points:         180
 PW_GRID|   Bounds   2            -75      74                Points:         150
 PW_GRID|   Bounds   3            -90      89                Points:         180
 PW_GRID| Volume element (a.u.^3)  0.9747E-02     Volume (a.u.^3)     47370.7741
 PW_GRID| Grid span                                                    FULLSPACE
 PW_GRID|   Distribution                         Average         Max         Min
 PW_GRID|   G-Vectors                            33750.0       34200       33300
 PW_GRID|   G-Rays                                 187.5         190         185
 PW_GRID|   Real Space Points                    33750.0       54000       27000

 PW_GRID| Information for grid number                                          3
 PW_GRID| Grid distributed over                                   144 processors
 PW_GRID| Real space group dimensions                                    12   12
 PW_GRID| the grid is blocked:                                                NO
 PW_GRID| Cutoff [a.u.]                                                     33.3
 PW_GRID| spherical cutoff:                                                   NO
 PW_GRID|   Bounds   1            -50      49                Points:         100
 PW_GRID|   Bounds   2            -45      44                Points:          90
 PW_GRID|   Bounds   3            -50      49                Points:         100
 PW_GRID| Volume element (a.u.^3)  0.5263E-01     Volume (a.u.^3)     47370.7741
 PW_GRID| Grid span                                                    FULLSPACE
 PW_GRID|   Distribution                         Average         Max         Min
 PW_GRID|   G-Vectors                             6250.0        6400        6000
 PW_GRID|   G-Rays                                  62.5          64          60
 PW_GRID|   Real Space Points                     6250.0        7200        5600

 PW_GRID| Information for grid number                                          4
 PW_GRID| Grid distributed over                                   144 processors
 PW_GRID| Real space group dimensions                                    12   12
 PW_GRID| the grid is blocked:                                                NO
 PW_GRID| Cutoff [a.u.]                                                     11.1
 PW_GRID| spherical cutoff:                                                   NO
 PW_GRID|   Bounds   1            -30      29                Points:          60
 PW_GRID|   Bounds   2            -27      26                Points:          54
 PW_GRID|   Bounds   3            -30      29                Points:          60
 PW_GRID| Volume element (a.u.^3)  0.2437         Volume (a.u.^3)     47370.7741
 PW_GRID| Grid span                                                    FULLSPACE
 PW_GRID|   Distribution                         Average         Max         Min
 PW_GRID|   G-Vectors                             1350.0        1500        1260
 PW_GRID|   G-Rays                                  22.5          25          21
 PW_GRID|   Real Space Points                     1350.0        1500        1200

 PW_GRID| Information for grid number                                          5
 PW_GRID| Grid distributed over                                   144 processors
 PW_GRID| Real space group dimensions                                    12   12
 PW_GRID| the grid is blocked:                                                NO
 PW_GRID| Cutoff [a.u.]                                                      3.7
 PW_GRID| spherical cutoff:                                                   NO
 PW_GRID|   Bounds   1            -18      17                Points:          36
 PW_GRID|   Bounds   2            -15      14                Points:          30
 PW_GRID|   Bounds   3            -18      17                Points:          36
 PW_GRID| Volume element (a.u.^3)   1.218         Volume (a.u.^3)     47370.7741
 PW_GRID| Grid span                                                    FULLSPACE
 PW_GRID|   Distribution                         Average         Max         Min
 PW_GRID|   G-Vectors                              270.0         324         180
 PW_GRID|   G-Rays                                   7.5           9           5
 PW_GRID|   Real Space Points                      270.0         324         216

 POISSON| Solver                                                        PERIODIC
 POISSON| Periodicity                                                        XYZ

 RS_GRID| Information for grid number                                          1
 RS_GRID|   Bounds   1           -150     149                Points:         300
 RS_GRID|   Bounds   2           -128     127                Points:         256
 RS_GRID|   Bounds   3           -150     149                Points:         300
 RS_GRID| Real space distribution over                                  6 groups
 RS_GRID| Real space distribution along direction                              1
 RS_GRID| Border size                                                         49
 RS_GRID| Real space distribution over                                  4 groups
 RS_GRID| Real space distribution along direction                              2
 RS_GRID| Border size                                                         49
 RS_GRID| Real space distribution over                                  6 groups
 RS_GRID| Real space distribution along direction                              3
 RS_GRID| Border size                                                         49
 RS_GRID|   Distribution                         Average         Max         Min
 RS_GRID|   Planes                                 148.0         148         148
 RS_GRID|   Distribution                         Average         Max         Min
 RS_GRID|   Planes                                 162.0         162         162
 RS_GRID|   Distribution                         Average         Max         Min
 RS_GRID|   Planes                                 148.0         148         148

 RS_GRID| Information for grid number                                          2
 RS_GRID|   Bounds   1            -90      89                Points:         180
 RS_GRID|   Bounds   2            -75      74                Points:         150
 RS_GRID|   Bounds   3            -90      89                Points:         180
 RS_GRID| Real space distribution over                                  6 groups
 RS_GRID| Real space distribution along direction                              1
 RS_GRID| Border size                                                         38
 RS_GRID| Real space distribution over                                  4 groups
 RS_GRID| Real space distribution along direction                              2
 RS_GRID| Border size                                                         38
 RS_GRID| Real space distribution over                                  6 groups
 RS_GRID| Real space distribution along direction                              3
 RS_GRID| Border size                                                         38
 RS_GRID|   Distribution                         Average         Max         Min
 RS_GRID|   Planes                                 106.0         106         106
 RS_GRID|   Distribution                         Average         Max         Min
 RS_GRID|   Planes                                 113.5         114         113
 RS_GRID|   Distribution                         Average         Max         Min
 RS_GRID|   Planes                                 106.0         106         106

 RS_GRID| Information for grid number                                          3
 RS_GRID|   Bounds   1            -50      49                Points:         100
 RS_GRID|   Bounds   2            -45      44                Points:          90
 RS_GRID|   Bounds   3            -50      49                Points:         100
 RS_GRID| Real space fully replicated
 RS_GRID| Group size                                                           1

 RS_GRID| Information for grid number                                          4
 RS_GRID|   Bounds   1            -30      29                Points:          60
 RS_GRID|   Bounds   2            -27      26                Points:          54
 RS_GRID|   Bounds   3            -30      29                Points:          60
 RS_GRID| Real space fully replicated
 RS_GRID| Group size                                                           1

 RS_GRID| Information for grid number                                          5
 RS_GRID|   Bounds   1            -18      17                Points:          36
 RS_GRID|   Bounds   2            -15      14                Points:          30
 RS_GRID|   Bounds   3            -18      17                Points:          36
 RS_GRID| Real space fully replicated
 RS_GRID| Group size                                                           1

 *** WARNING in hfx_types.F:1343 :: Periodic Hartree Fock calculation      ***
 *** requested with use of a truncated or shortrange potential. The cutoff ***
 *** radius is larger than half the minimal cell dimension. This may lead  ***
 *** to unphysical total energies. Reduce the cutoff radius in order to    ***
 *** avoid possible problems.                                              ***


  HFX_INFO| Replica ID:                                                        1
  HFX_INFO| EPS_SCHWARZ:                                                 1.0E-06
  HFX_INFO| EPS_SCHWARZ_FORCES                                           1.0E-06
  HFX_INFO| EPS_STORAGE_SCALING:                                         1.0E-01
  HFX_INFO| NBINS:                                                            64
  HFX_INFO| BLOCK_SIZE:                                                        2
  HFX_INFO| FRACTION:                                               0.3600000000
  HFX_INFO| Interaction Potential:                                    SHORTRANGE
  HFX_INFO| Omega:                                                  0.1100000000
  HFX_INFO| Cutoff Radius [angstrom]:                              14.2786927855
  HFX_INFO| NUMBER_OF_SHELLS:                                               AUTO
  HFX_INFO| Number of periodic shells considered:                             -1
[...]
 flops    63 x     3 x   278              3362688       0.0%    100.0%      0.0%
 flops   278 x     3 x    63              3362688       0.0%    100.0%      0.0%
 flops    67 x     3 x    67              3851562       0.0%    100.0%      0.0%
 flops    66 x     3 x    66              3920400       0.0%    100.0%      0.0%
 flops    17 x    31 x    31              4182272       0.0%    100.0%      0.0%
 flops    18 x     1 x    18              5308416       0.0%    100.0%      0.0%
 flops    63 x    63 x    64              5588352       0.0%    100.0%      0.0%
 flops    63 x    64 x    63              5588352       0.0%    100.0%      0.0%
 flops    64 x    63 x    63              5588352       0.0%    100.0%      0.0%
 flops   277 x     3 x    63              6701184       0.0%    100.0%      0.0%
 flops    63 x     3 x   277              6701184       0.0%    100.0%      0.0%
 flops    18 x     1 x    17             10027008       0.0%    100.0%      0.0%
 flops    17 x     1 x    18             10027008       0.0%    100.0%      0.0%
 flops    17 x     1 x    17             18939904       0.0%    100.0%      0.0%
 flops     3 x     3 x   278             22778208       0.0%    100.0%      0.0%
 flops   278 x    63 x    63             26481168       0.0%    100.0%      0.0%
 flops   278 x     3 x     3             35108064       0.0%    100.0%      0.0%
 flops    67 x     3 x    64             40470144       0.0%    100.0%      0.0%
 flops    64 x     3 x    67             40470144       0.0%    100.0%      0.0%
 flops    66 x     3 x    64             41817600       0.0%    100.0%      0.0%
 flops    64 x     3 x    66             41817600       0.0%    100.0%      0.0%
 flops     3 x     3 x   277             45392544       0.0%    100.0%      0.0%
 flops   277 x    63 x    63             52771824       0.0%    100.0%      0.0%
 flops    64 x    64 x    63             62447616       0.0%    100.0%      0.0%
 flops    63 x    64 x    64             62447616       0.0%    100.0%      0.0%
 flops    64 x    63 x    64             62447616       0.0%    100.0%      0.0%
 flops    67 x     3 x   278             63924432       0.0%    100.0%      0.0%
 flops   278 x     3 x    67             63924432       0.0%    100.0%      0.0%
 flops    66 x     3 x   278             66052800       0.0%    100.0%      0.0%
 flops   278 x     3 x    66             66052800       0.0%    100.0%      0.0%
 flops   277 x     3 x     3             69963552       0.0%    100.0%      0.0%
 flops    66 x    66 x   278             77501952       0.0%    100.0%      0.0%
 flops    67 x    67 x   278             79868288       0.0%    100.0%      0.0%
 flops    63 x    63 x   278             97097616       0.0%    100.0%      0.0%
 flops    18 x    32 x    32            110886912       0.0%    100.0%      0.0%
 flops    67 x     3 x   277            127388976       0.0%    100.0%      0.0%
 flops   277 x     3 x    67            127388976       0.0%    100.0%      0.0%
 flops    66 x     3 x   277            131630400       0.0%    100.0%      0.0%
 flops   277 x     3 x    66            131630400       0.0%    100.0%      0.0%
 flops    66 x    66 x   277            154446336       0.0%    100.0%      0.0%
 flops    67 x    67 x   277            159161984       0.0%    100.0%      0.0%
 flops    25 x    25 x    63            163800000       0.0%    100.0%      0.0%
 flops    18 x    18 x    63            169827840       0.0%    100.0%      0.0%
 flops    63 x    63 x   277            193496688       0.0%    100.0%      0.0%
 flops    17 x    32 x    32            209453056       0.0%    100.0%      0.0%
 flops    25 x    21 x    63            270950400       0.0%    100.0%      0.0%
 flops    21 x    25 x    63            270950400       0.0%    100.0%      0.0%
 flops   278 x    63 x    64            295916544       0.0%    100.0%      0.0%
 flops   278 x    64 x    63            295916544       0.0%    100.0%      0.0%
 flops   278 x    63 x   278            311609088     100.0%      0.0%      0.0%
 flops    18 x    17 x    63            315850752       0.0%    100.0%      0.0%
 flops    17 x    18 x    63            315850752       0.0%    100.0%      0.0%
 flops    21 x    21 x    63            458752896       0.0%    100.0%      0.0%
 flops   277 x    64 x    63            589704192       0.0%    100.0%      0.0%
 flops   277 x    63 x    64            589704192       0.0%    100.0%      0.0%
 flops    17 x    17 x    63            601267968       0.0%    100.0%      0.0%
 flops   278 x    63 x   277            620976384     100.0%      0.0%      0.0%
 flops   277 x    63 x   278            620976384     100.0%      0.0%      0.0%
 flops    64 x    66 x   278            826687488       0.0%    100.0%      0.0%
 flops    66 x    64 x   278            826687488       0.0%    100.0%      0.0%
 flops    64 x    67 x   278            839213056       0.0%    100.0%      0.0%
 flops    67 x    64 x   278            839213056       0.0%    100.0%      0.0%
 flops    64 x     3 x    64            923394048       0.0%    100.0%      0.0%
 flops    63 x    64 x   278           1085027328       0.0%    100.0%      0.0%
 flops    64 x    63 x   278           1085027328       0.0%    100.0%      0.0%
 flops   277 x    63 x   277           1237485312     100.0%      0.0%      0.0%
 flops   278 x    66 x   278           1305790464     100.0%      0.0%      0.0%
 flops   278 x    67 x   278           1325575168     100.0%      0.0%      0.0%
 flops    64 x     3 x   278           1454816256       0.0%    100.0%      0.0%
 flops   278 x     3 x    64           1454816256       0.0%    100.0%      0.0%
 flops    64 x    64 x    64           1603796992       0.0%    100.0%      0.0%
 flops    64 x    66 x   277           1647427584       0.0%    100.0%      0.0%
 flops    66 x    64 x   277           1647427584       0.0%    100.0%      0.0%
 flops    64 x    67 x   277           1672388608       0.0%    100.0%      0.0%
 flops    67 x    64 x   277           1672388608       0.0%    100.0%      0.0%
 flops    63 x    64 x   277           2162248704       0.0%    100.0%      0.0%
 flops    64 x    63 x   277           2162248704       0.0%    100.0%      0.0%
 flops   278 x     3 x   278           2173844352       0.0%    100.0%      0.0%
 flops   277 x    66 x   278           2602186752     100.0%      0.0%      0.0%
 flops   278 x    66 x   277           2602186752     100.0%      0.0%      0.0%
 flops   277 x    67 x   278           2641613824     100.0%      0.0%      0.0%
 flops   278 x    67 x   277           2641613824     100.0%      0.0%      0.0%
 flops    64 x     3 x   277           2899166208       0.0%    100.0%      0.0%
 flops   277 x     3 x    64           2899166208       0.0%    100.0%      0.0%
 flops    25 x    25 x    64           3827200000       0.0%    100.0%      0.0%
 flops    18 x    18 x    64           3968040960       0.0%    100.0%      0.0%
 flops   277 x     3 x   278           4332049536       0.0%    100.0%      0.0%
 flops   278 x     3 x   277           4332049536       0.0%    100.0%      0.0%
 flops   277 x    66 x   277           5185652736     100.0%      0.0%      0.0%
 flops   277 x    67 x   277           5264223232     100.0%      0.0%      0.0%
 flops    25 x    21 x    64           6330777600       0.0%    100.0%      0.0%
 flops    21 x    25 x    64           6330777600       0.0%    100.0%      0.0%
 flops   278 x    64 x    64           7242055680       0.0%    100.0%      0.0%
 flops    18 x    17 x    64           7379877888       0.0%    100.0%      0.0%
 flops    17 x    18 x    64           7379877888       0.0%    100.0%      0.0%
 flops   277 x     3 x   277           8632933248       0.0%    100.0%      0.0%
 flops    18 x     3 x    18           9443672064       0.0%    100.0%      0.0%
 flops    21 x    21 x    64          10718797824       0.0%    100.0%      0.0%
 flops    17 x    17 x    64          14048673792       0.0%    100.0%      0.0%
 flops   277 x    64 x    64          14432010240       0.0%    100.0%      0.0%
 flops    18 x     3 x    17          17838047232       0.0%    100.0%      0.0%
 flops    17 x     3 x    18          17838047232       0.0%    100.0%      0.0%
 flops    17 x     3 x    17          33694089216       0.0%    100.0%      0.0%
 flops   278 x    64 x   278          35137634304     100.0%      0.0%      0.0%
 flops    18 x    31 x    18          36861640704       0.0%    100.0%      0.0%
 flops    64 x    64 x   278          44190203904       0.0%    100.0%      0.0%
 flops    18 x    31 x    17          69627543552       0.0%    100.0%      0.0%
 flops    17 x    31 x    18          69627543552       0.0%    100.0%      0.0%
 flops   277 x    64 x   278          70022479872     100.0%      0.0%      0.0%
 flops   278 x    64 x   277          70022479872     100.0%      0.0%      0.0%
 flops    64 x    64 x   277          88062492672       0.0%    100.0%      0.0%
 flops    17 x    31 x    17         131518693376       0.0%    100.0%      0.0%
 flops   277 x    64 x   277         139541200896     100.0%      0.0%      0.0%
 flops    18 x    32 x    18        1813524774912       0.0%    100.0%      0.0%
 flops    18 x    32 x    17        3425546797056       0.0%    100.0%      0.0%
 flops    17 x    32 x    18        3425546797056       0.0%    100.0%      0.0%
 flops    25 x    32 x    25        3748659200000       0.0%    100.0%      0.0%
 flops    25 x    32 x    21        6297747456000       0.0%    100.0%      0.0%
 flops    21 x    32 x    25        6297747456000       0.0%    100.0%      0.0%
 flops    17 x    32 x    17        6470477283328       0.0%    100.0%      0.0%
 flops    21 x    32 x    21       10580215726080       0.0%    100.0%      0.0%
 flops inhomo. stacks                           0       0.0%      0.0%      0.0%
 flops total                        43.054985E+12       0.8%     99.2%      0.0%
 flops max/rank                    316.481083E+09       0.8%     99.2%      0.0%
 matmuls inhomo. stacks                         0       0.0%      0.0%      0.0%
 matmuls total                         1692548774       0.0%    100.0%      0.0%
 number of processed stacks               9159166       0.4%     99.6%      0.0%
 average stack size                                     1.0     185.5       0.0
 marketing flops                    43.132322E+12
 -------------------------------------------------------------------------------
 # multiplications                           9683
 max memory usage/rank               2.572972E+09
 # max total images/rank                        1
 # max 3D layers                                1
 # MPI messages exchanged                30675744
 MPI messages size (bytes):
  total size                         3.361444E+12
  min size                           0.000000E+00
  max size                           1.036800E+06
  average size                     109.579859E+03
 MPI breakdown and total messages size (bytes):
             size <=      128            22238568                  6404112
       128 < size <=     8192              849552               5237329680
      8192 < size <=    32768              431431              14131044048
     32768 < size <=   131072               74129               2527762600
    131072 < size <=  4194304             7082064            3339430566912
   4194304 < size <= 16777216                   0                        0
  16777216 < size                               0                        0
 -------------------------------------------------------------------------------

 MEMORY| Estimated peak process memory [MiB]                                2736

 -------------------------------------------------------------------------------
 ----                             MULTIGRID INFO                            ----
 -------------------------------------------------------------------------------
 count for grid        1:         576675          cutoff [a.u.]          300.00
 count for grid        2:        6575383          cutoff [a.u.]          100.00
 count for grid        3:        4787743          cutoff [a.u.]           33.33
 count for grid        4:        3223362          cutoff [a.u.]           11.11
 count for grid        5:         587232          cutoff [a.u.]            3.70
 total gridlevel count  :       15750395

 -------------------------------------------------------------------------------
 -                                                                             -
 -                         MESSAGE PASSING PERFORMANCE                         -
 -                                                                             -
 -------------------------------------------------------------------------------

 ROUTINE             CALLS      AVE VOLUME [Bytes]
 MP_Group             1848
 MP_Bcast             5771                 328832.
 MP_Allreduce        60703                     53.
 MP_Sync              2685
 MP_Alltoall         72261                 483522.
 MP_ISendRecv       447876                 107703.
 MP_Wait           1562722
 MP_comm_split         345
 MP_ISend           514604                  62606.
 MP_IRecv           514816                  62645.
 MP_Recv               966                 851968.
 MP_Memory          369268
 -------------------------------------------------------------------------------


 -------------------------------------------------------------------------------
 -                                                                             -
 -                           R E F E R E N C E S                               -
 -                                                                             -
 -------------------------------------------------------------------------------
 
 CP2K version 7.0 (Development Version), the CP2K developers group (2018).
 CP2K is freely available from https://www.cp2k.org/ .

 Schuett, Ole; Messmer, Peter; Hutter, Juerg; VandeVondele, Joost. 
 Electronic Structure Calculations on Graphics Processing Units, John Wiley & Sons, Ltd, 173-190 (2016). 
 GPU-Accelerated Sparse Matrix-Matrix Multiplication for Linear Scaling Density Functional Theory.
 https://dx.doi.org/10.1002/9781118670712.ch8


 Borstnik, U; VandeVondele, J; Weber, V; Hutter, J. 
 PARALLEL COMPUTING, 40 (5-6), 47-58 (2014). 
 Sparse matrix multiplication: The distributed block-compressed sparse
 row library.
 https://dx.doi.org/10.1016/j.parco.2014.03.012


 Hutter, J; Iannuzzi, M; Schiffmann, F; VandeVondele, J. 
 WILEY INTERDISCIPLINARY REVIEWS-COMPUTATIONAL MOLECULAR SCIENCE, 4 (1), 15-25 (2014). 
 CP2K: atomistic simulations of condensed matter systems.
 https://dx.doi.org/10.1002/wcms.1159


 Guidon, M; Hutter, J; VandeVondele, J. 
 JOURNAL OF CHEMICAL THEORY AND COMPUTATION, 6 (8), 2348-2364 (2010). 
 Auxiliary Density Matrix Methods for Hartree-Fock Exchange Calculations.
 https://dx.doi.org/10.1021/ct1002225


 Guidon, M; Hutter, J; VandeVondele, J. 
 JOURNAL OF CHEMICAL THEORY AND COMPUTATION, 5 (11), 3010-3021 (2009). 
 Robust Periodic Hartree-Fock Exchange for Large-Scale Simulations Using
 Gaussian Basis Sets.
 https://dx.doi.org/10.1021/ct900494g


 Guidon, M; Schiffmann, F; Hutter, J; VandeVondele, J. 
 JOURNAL OF CHEMICAL PHYSICS, 128 (21), 214104 (2008). 
 Ab initio molecular dynamics using hybrid density functionals.
 https://dx.doi.org/10.1063/1.2931945


 VandeVondele, J; Hutter, J. 
 JOURNAL OF CHEMICAL PHYSICS, 127 (11), 114105 (2007). 
 Gaussian basis sets for accurate calculations on molecular systems in
 gas and condensed phases.
 https://dx.doi.org/10.1063/1.2770708


 Krack, M. 
 THEORETICAL CHEMISTRY ACCOUNTS, 114 (1-3), 145-152 (2005). 
 Pseudopotentials for H to Kr optimized for gradient-corrected
 exchange-correlation functionals.
 https://dx.doi.org/10.1007/s00214-005-0655-y


 VandeVondele, J; Krack, M; Mohamed, F; Parrinello, M; Chassaing, T;
 Hutter, J. COMPUTER PHYSICS COMMUNICATIONS, 167 (2), 103-128 (2005). 
 QUICKSTEP: Fast and accurate density functional calculations using a
 mixed Gaussian and plane waves approach.
 https://dx.doi.org/10.1016/j.cpc.2004.12.014


 Frigo, M; Johnson, SG. 
 PROCEEDINGS OF THE IEEE, 93 (2), 216-231 (2005). 
 The design and implementation of FFTW3.
 https://dx.doi.org/10.1109/JPROC.2004.840301


 Iannuzzi, M; Chassaing, T; Wallman, T; Hutter, J. 
 CHIMIA, 59 (7-8), 499-503 (2005). 
 Ground and excited state density functional calculations with the
 Gaussian and augmented-plane-wave method.
 https://dx.doi.org/10.2533/000942905777676164


 Heyd, J; Scuseria, GE. 
 JOURNAL OF CHEMICAL PHYSICS, 120 (16), 7274-7280 (2004). 
 Assessment and validation of a screened Coulomb hybrid density
 functional.
 https://dx.doi.org/10.1063/1.1668634


 VandeVondele, J; Hutter, J. 
 JOURNAL OF CHEMICAL PHYSICS, 118 (10), 4365-4369 (2003). 
 An efficient orbital transformation method for electronic structure
 calculations.
 https://dx.doi.org/10.1063/1.1543154


 Hartwigsen, C; Goedecker, S; Hutter, J. 
 PHYSICAL REVIEW B, 58 (7), 3641-3662 (1998). 
 Relativistic separable dual-space Gaussian pseudopotentials from H to Rn.
 https://dx.doi.org/10.1103/PhysRevB.58.3641


 Lippert, G; Hutter, J; Parrinello, M. 
 MOLECULAR PHYSICS, 92 (3), 477-487 (1997). 
 A hybrid Gaussian and plane wave density functional scheme.
 https://dx.doi.org/10.1080/002689797170220


 Perdew, JP; Burke, K; Ernzerhof, M. 
 PHYSICAL REVIEW LETTERS, 77 (18), 3865-3868 (1996). 
 Generalized gradient approximation made simple.
 https://dx.doi.org/10.1103/PhysRevLett.77.3865


 Goedecker, S; Teter, M; Hutter, J. 
 PHYSICAL REVIEW B, 54 (3), 1703-1710 (1996). 
 Separable dual-space Gaussian pseudopotentials.
 https://dx.doi.org/10.1103/PhysRevB.54.1703


 -------------------------------------------------------------------------------
 -                                                                             -
 -                                T I M I N G                                  -
 -                                                                             -
 -------------------------------------------------------------------------------
 SUBROUTINE                       CALLS  ASD         SELF TIME        TOTAL TIME
                                MAXIMUM       AVERAGE  MAXIMUM  AVERAGE  MAXIMUM
 CP2K                                 1  1.0     0.89     1.12 58017.58 58019.69
 qs_energies                          1  2.0     0.02     0.06 58014.85 58016.90
 qs_energies_properties               1  3.0     0.04     0.11 57151.61 57153.64
 tddfpt                               1  4.0     0.04     0.19 57151.57 57153.64
 tddfpt_davidson_solver               2  5.0     0.10     0.42 57135.32 57137.40
 tddfpt_compute_Aop_evects           11  6.0     0.09     0.39 57091.65 57093.73
 integrate_four_center              111  9.0    14.77    26.35 57050.77 57052.67
 integrate_four_center_main         111 10.0     0.04     0.04 55611.97 56816.85
 integrate_four_center_bin         7104 11.0 55611.93 56816.81 55611.93 56816.81
 tddfpt_apply_hfx                    11  7.0     0.06     0.22 56326.72 56328.77
 tddft_hfx_matrix                   110  8.0     0.01     0.06 56242.27 56244.15
 mp_sync                           2685 13.0  1311.49  2789.53  1311.49  2789.53
 -------------------------------------------------------------------------------

 The number of warnings for this run is : 1
 
 -------------------------------------------------------------------------------
  **** **** ******  **  PROGRAM ENDED AT                 2019-08-20 16:30:37.798
 ***** ** ***  *** **   PROGRAM RAN ON                                     sm155
 **    ****   ******    PROGRAM RAN BY                                    npopov
 ***** **    ** ** **   PROGRAM PROCESS ID                                 16659
  **** **  *******  **  PROGRAM STOPPED IN /home/npopov/babri-ng/vk/ii_d_tddft_v
                                           2
