
                                 *****************
                                 * O   R   C   A *
                                 *****************

           --- An Ab Initio, DFT and Semiempirical electronic structure package ---

                  #######################################################
                  #                        -***-                        #
                  #          Department of theory and spectroscopy      #
                  #               Directorship: Frank Neese             #
                  #        Max Planck Institute fuer Kohlenforschung    #
                  #                Kaiser Wilhelm Platz 1               #
                  #                 D-45470 Muelheim/Ruhr               #
                  #                      Germany                        #
                  #                                                     #
                  #                  All rights reserved                #
                  #                        -***-                        #
                  #######################################################


                         Program Version 4.1.1  - RELEASE  -


 With contributions from (in alphabetic order):
   Daniel Aravena         : Magnetic Properties
   Michael Atanasov       : Ab Initio Ligand Field Theory
   Alexander A. Auer      : GIAO ZORA
   Ute Becker             : Parallelization
   Giovanni Bistoni       : ED, Open-shell LED
   Martin Brehm           : Molecular dynamics
   Dmytro Bykov           : SCF Hessian
   Vijay G. Chilkuri      : MRCI spin determinant printing
   Dipayan Datta          : RHF DLPNO-CCSD density
   Achintya Kumar Dutta   : EOM-CC, STEOM-CC
   Dmitry Ganyushin       : Spin-Orbit,Spin-Spin,Magnetic field MRCI
   Miquel Garcia          : C-PCM Hessian
   Yang Guo               : DLPNO-NEVPT2, CIM, IAO-localization
   Andreas Hansen         : Spin unrestricted coupled pair/coupled cluster methods
   Benjamin Helmich-Paris : CASSCF linear response (MC-RPA)
   Lee Huntington         : MR-EOM, pCC
   Robert Izsak           : Overlap fitted RIJCOSX, COSX-SCS-MP3, EOM
   Christian Kollmar      : KDIIS, OOCD, Brueckner-CCSD(T), CCSD density
   Simone Kossmann        : Meta GGA functionals, TD-DFT gradient, OOMP2, MP2 Hessian
   Martin Krupicka        : AUTO-CI
   Lucas Lang             : DCDCAS
   Dagmar Lenk            : GEPOL surface, SMD
   Dimitrios Liakos       : Extrapolation schemes; parallel MDCI
   Dimitrios Manganas     : ROCIS; embedding schemes
   Dimitrios Pantazis     : SARC Basis sets
   Taras Petrenko         : DFT Hessian,TD-DFT gradient, ASA, ECA, R-Raman, ABS, FL, XAS/XES, NRVS
   Peter Pinski           : DLPNO-MP2, DLPNO-MP2 Gradient
   Christoph Reimann      : Effective Core Potentials
   Marius Retegan         : Local ZFS, SOC
   Christoph Riplinger    : Optimizer, TS searches, QM/MM, DLPNO-CCSD(T), (RO)-DLPNO pert. Triples
   Tobias Risthaus        : Range-separated hybrids, TD-DFT gradient, RPA, STAB
   Michael Roemelt        : Restricted open shell CIS
   Masaaki Saitow         : Open-shell DLPNO
   Barbara Sandhoefer     : DKH picture change effects
   Avijit Sen             : IP-ROCIS
   Kantharuban Sivalingam : CASSCF convergence, NEVPT2, FIC-MRCI
   Bernardo de Souza      : ESD, SOC TD-DFT
   Georgi Stoychev        : AutoAux, RI-MP2 NMR
   Willem Van den Heuvel  : Paramagnetic NMR
   Boris Wezisla          : Elementary symmetry handling
   Frank Wennmohs         : Technical directorship


 We gratefully acknowledge several colleagues who have allowed us to
 interface, adapt or use parts of their codes:
   Stefan Grimme, W. Hujo, H. Kruse,             : VdW corrections, initial TS optimization,
                  C. Bannwarth                     DFT functionals, gCP, sTDA/sTD-DF
   Ed Valeev                                     : LibInt (2-el integral package), F12 methods
   Garnet Chan, S. Sharma, J. Yang, R. Olivares  : DMRG
   Ulf Ekstrom                                   : XCFun DFT Library
   Mihaly Kallay                                 : mrcc  (arbitrary order and MRCC methods)
   Andreas Klamt, Michael Diedenhofen            : otool_cosmo (COSMO solvation model)
   Jiri Pittner, Ondrej Demel                    : Mk-CCSD
   Frank Weinhold                                : gennbo (NPA and NBO analysis)
   Christopher J. Cramer and Donald G. Truhlar   : smd solvation model
   Lars Goerigk                                  : TD-DFT with DH, B97 family of functionals
   V. Asgeirsson, H. Jonsson                     : NEB implementation
   FAccTs GmbH                                   : IRC, NEB, NEB-TS, Multilevel


 Your calculation uses the libint2 library for the computation of 2-el integrals
 For citations please refer to: http://libint.valeyev.net

 This ORCA versions uses:
   CBLAS   interface :  Fast vector & matrix operations
   LAPACKE interface :  Fast linear algebra routines
   SCALAPACK package :  Parallel linear algebra routines


----- Orbital basis set information -----
Your calculation utilizes the basis: STO-3G
   H-Ne       : W. J. Hehre, R. F. Stewart and J. A. Pople, J. Chem. Phys. 2657 (1969).
   Na-Ar      : W. J. Hehre, R. Ditchfield, R. F. Stewart and J. A. Pople, J. Chem. Phys. 2769 (1970).
   K,Ca,Ga-Kr : W. J. Pietro, B. A. Levy, W. J. Hehre and R. F. Stewart, J. Am. Chem. Soc. 19, 2225 (1980).
   Sc-Zn,Y-Cd : W. J. Pietro and W. J. Hehre, J. Comp. Chem. 4, 241 (1983).

================================================================================
                                        WARNINGS
                       Please study these warnings very carefully!
================================================================================


WARNING: Geometry optimizations can change the point-group symmetry!


WARNING: Geometry Optimization
  ===> : Switching off AutoStart
         For restart on a previous wavefunction, please use MOREAD

INFO   : the flag for use of LIBINT has been found!

================================================================================
                                       INPUT FILE
================================================================================
NAME = go.inp
|  1> ! rks b3lyp sto-3g usesym opt
|  2> 
|  3> %output
|  4>  printlevel normal
|  5>  print[ p_mos ] 1
|  6>  print[ p_overlap ] 1
|  7>  end 
|  8> 
|  9> * xyz 0 1
| 10> H           -2.615953    -0.218404     1.557139
| 11> N            1.689454    -0.355319     0.197050
| 12> C            0.954894     1.588347     1.271398
| 13> N           -0.486376    -0.317292     0.966602
| 14> C           -0.422687     1.049984     1.402466
| 15> C            0.428807    -0.820989     0.191331
| 16> C            1.984007     0.937837     0.632440
| 17> N            1.340317     2.847728     1.633723
| 18> O            0.369820    -1.865576    -0.318150
| 19> C           -1.796113    -0.998860     0.809312
| 20> O           -1.262758     1.758461     1.836757
| 21> H            3.561826     3.917677     1.522462
| 22> C            2.936486    -0.656175    -0.654495
| 23> H           -1.608403    -1.770297     1.441627
| 24> H           -2.266223    -1.153385    -0.218636
| 25> H            3.687982    -0.989669     0.130872
| 26> H            3.102313    -0.009221    -1.578132
| 27> H            2.590803    -1.935636    -0.851937
| 28> C            0.532196     3.928511     2.295631
| 29> C            2.733197     3.101934     1.180821
| 30> N            3.143090     2.078444     0.509160
| 31> H            0.720279     5.171226     1.712030
| 32> H            1.248447     4.206286     3.409765
| 33> H           -0.333348     3.610420     2.430805
| 34> *
| 35> %pal
| 36>  nprocs 4
| 37> end
| 38> 
| 39>                          ****END OF INPUT****
================================================================================

------------------------------------------------------------------------------
                            SYMMETRY HANDLING SETUP
------------------------------------------------------------------------------

------------------
SYMMETRY DETECTION
------------------
Preparing Data                    ... done
Detection Threshold:    SymThresh ... 1.0000e-04

Point Group will now be determined:
Total Mass                        ...   194.1940 amu
Center of Mass                    ...   1.57456620   1.61962931   1.61408752
Moving molecule to center of mass ... done
Searching for symmetry axes       ...

 #  N FMOD  D1  D2  D3       AX           AY           AZ

Axis search                       ... found no axes
Point group main block by axes    ... C1 (nonaxial) Block
Inversion center                  ... no
Symmetry plane                    ...no

POINT GROUP                       ... C1

The coordinates will now be cleaned:
Moving to standard coord frame    ... done
(Changed atom 8 to z axis and atom 10 in xz plane)
Structure cleanup requested       ... skipped (C1)

------------------
SYMMETRY REDUCTION
------------------
ORCA supports only abelian point groups.
It is now checked, if the determined point group is supported:
Point Group ( C1    ) is          ... supported

The point group is C1 - hence turning off symmetry
If this is a round-off problem, please increase the symmetry
        detection tolerance (%method SymThresh)

Storing the symmetry object:
Symmetry file                     ... go.sym.tmp
Writing symmetry information      ... done

                       *****************************
                       * Geometry Optimization Run *
                       *****************************

Geometry optimization settings:
Update method            Update   .... BFGS
Choice of coordinates    CoordSys .... Z-matrix Internals
Initial Hessian          InHess   .... Almoef's Model

Convergence Tolerances:
Energy Change            TolE     ....  5.0000e-06 Eh
Max. Gradient            TolMAXG  ....  3.0000e-04 Eh/bohr
RMS Gradient             TolRMSG  ....  1.0000e-04 Eh/bohr
Max. Displacement        TolMAXD  ....  4.0000e-03 bohr
RMS Displacement         TolRMSD  ....  2.0000e-03 bohr

------------------------------------------------------------------------------
                        ORCA OPTIMIZATION COORDINATE SETUP
------------------------------------------------------------------------------

The optimization will be done in new redundant internal coordinates
Making redundant internal coordinates   ...  (new redundants) done
Evaluating the initial hessian          ...  (Almloef) done
Evaluating the coordinates              ...  done
Calculating the B-matrix                .... done
Calculating the G-matrix                .... done
Diagonalizing the G-matrix              .... done
Small eigenvalue found = 2.254e-02
The first mode is                       ....   56
The number of degrees of freedom        ....   66

    -----------------------------------------------------------------
                    Redundant Internal Coordinates


    -----------------------------------------------------------------
         Definition                    Initial Value    Approx d2E/dq
    -----------------------------------------------------------------
      1. B(C   4,C   2)                  1.4848         0.440992   
      2. B(C   4,N   3)                  1.4365         0.471757   
      3. B(C   5,N   1)                  1.3439         0.662824   
      4. B(C   5,N   3)                  1.3009         0.776326   
      5. B(C   6,C   2)                  1.3750         0.660298   
      6. B(C   6,N   1)                  1.3959         0.547569   
      7. B(N   7,C   2)                  1.3660         0.611246   
      8. B(O   8,C   5)                  1.1637         1.285028   
      9. B(C   9,N   3)                  1.4848         0.395001   
     10. B(C   9,H   0)                  1.3566         0.135208   
     11. B(O  10,C   4)                  1.1816         1.203107   
     12. B(C  12,N   1)                  1.5397         0.322857   
     13. B(H  13,C   9)                  1.0150         0.474375   
     14. B(H  14,C   9)                  1.1409         0.298732   
     15. B(H  15,C  12)                  1.1370         0.302998   
     16. B(H  16,C  12)                  1.1398         0.299891   
     17. B(H  17,C  12)                  1.3400         0.143755   
     18. B(C  18,N   7)                  1.5031         0.369361   
     19. B(C  19,H  11)                  1.2119         0.230084   
     20. B(C  19,N   7)                  1.4866         0.392485   
     21. B(N  20,C  19)                  1.2910         0.805061   
     22. B(N  20,C   6)                  1.6308         0.231006   
     23. B(H  21,C  18)                  1.3858         0.121499   
     24. B(H  22,C  18)                  1.3533         0.136873   
     25. B(H  23,C  18)                  0.9320         0.643436   
     26. A(C   5,N   1,C   6)          121.3496         0.424026   
     27. A(C   6,N   1,C  12)          100.5219         0.373691   
     28. A(C   5,N   1,C  12)          133.6038         0.386270   
     29. A(C   4,C   2,N   7)          124.9350         0.404811   
     30. A(C   4,C   2,C   6)          124.3250         0.413043   
     31. A(C   6,C   2,N   7)          110.3817         0.435024   
     32. A(C   4,N   3,C   9)          120.5414         0.377104   
     33. A(C   5,N   3,C   9)          112.3144         0.411487   
     34. A(C   4,N   3,C   5)          121.2100         0.424713   
     35. A(N   3,C   4,O  10)          130.5932         0.459707   
     36. A(C   2,C   4,O  10)          118.3357         0.457121   
     37. A(C   2,C   4,N   3)          111.0668         0.386827   
     38. A(N   3,C   5,O   8)          124.9467         0.510181   
     39. A(N   1,C   5,N   3)          121.5482         0.451571   
     40. A(N   1,C   5,O   8)          111.1275         0.495379   
     41. A(N   1,C   6,C   2)          115.1694         0.426514   
     42. A(C   2,C   6,N  20)          103.6619         0.366624   
     43. A(N   1,C   6,N  20)          140.7420         0.352917   
     44. A(C   2,N   7,C  19)          109.9516         0.394059   
     45. A(C   2,N   7,C  18)          128.9057         0.389895   
     46. A(C  18,N   7,C  19)          120.9952         0.361188   
     47. A(H   0,C   9,N   3)          102.1572         0.278348   
     48. A(H  13,C   9,H  14)          122.3162         0.294936   
     49. A(H   0,C   9,H  14)          109.0006         0.244007   
     50. A(N   3,C   9,H  13)           96.8780         0.340561   
     51. A(H   0,C   9,H  13)          101.8646         0.261111   
     52. A(N   3,C   9,H  14)          121.4060         0.315561   
     53. A(H  16,C  12,H  17)          117.3937         0.246311   
     54. A(H  15,C  12,H  17)           89.5544         0.246678   
     55. A(N   1,C  12,H  17)           93.3896         0.272427   
     56. A(H  15,C  12,H  16)          129.0546         0.275230   
     57. A(N   1,C  12,H  16)          117.0706         0.305641   
     58. A(N   1,C  12,H  15)          102.1578         0.306147   
     59. A(H  21,C  18,H  23)          119.5512         0.268996   
     60. A(N   7,C  18,H  23)          108.5278         0.354466   
     61. A(H  21,C  18,H  22)           95.2102         0.215801   
     62. A(N   7,C  18,H  22)          103.0366         0.276011   
     63. A(N   7,C  18,H  21)          112.7303         0.271035   
     64. A(H  22,C  18,H  23)          116.2423         0.273917   
     65. A(H  11,C  19,N  20)          117.5938         0.339905   
     66. A(N   7,C  19,N  20)          108.6889         0.413681   
     67. A(N   7,C  19,H  11)          132.0559         0.302251   
     68. A(C   6,N  20,C  19)          106.8274         0.376974   
     69. D(O  10,C   4,N   3,C   5)    161.0258         0.017545   
     70. D(N   3,C   4,C   2,N   7)   -178.3843         0.013268   
     71. D(C   2,C   4,N   3,C   9)   -170.5483         0.017545   
     72. D(O  10,C   4,N   3,C   9)     10.2259         0.017545   
     73. D(N   3,C   4,C   2,C   6)      9.1567         0.013268   
     74. D(C   2,C   4,N   3,C   5)    -19.7483         0.017545   
     75. D(O  10,C   4,C   2,N   7)      0.9479         0.013268   
     76. D(O  10,C   4,C   2,C   6)   -171.5111         0.013268   
     77. D(N   1,C   5,N   3,C   9)   -179.0561         0.051013   
     78. D(N   1,C   5,N   3,C   4)     27.9566         0.051013   
     79. D(O   8,C   5,N   1,C  12)     22.2715         0.035979   
     80. D(O   8,C   5,N   1,C   6)    173.3757         0.035979   
     81. D(N   3,C   5,N   1,C   6)    -23.3202         0.035979   
     82. D(O   8,C   5,N   3,C   4)   -171.1259         0.051013   
     83. D(O   8,C   5,N   3,C   9)    -18.1386         0.051013   
     84. D(N   3,C   5,N   1,C  12)   -174.4244         0.035979   
     85. D(N  20,C   6,C   2,N   7)     -4.8806         0.030426   
     86. D(N   1,C   6,C   2,N   7)   -178.9593         0.030426   
     87. D(N   1,C   6,C   2,C   4)     -5.5498         0.030426   
     88. D(N  20,C   6,N   1,C  12)     -0.2476         0.023886   
     89. D(N  20,C   6,C   2,C   4)    168.5289         0.030426   
     90. D(N  20,C   6,N   1,C   5)   -159.3993         0.023886   
     91. D(C   2,C   6,N   1,C  12)    170.6378         0.023886   
     92. D(C   2,C   6,N   1,C   5)     11.4861         0.023886   
     93. D(C  19,N   7,C   2,C   6)      1.5229         0.030188   
     94. D(C  19,N   7,C   2,C   4)   -171.8377         0.030188   
     95. D(C  18,N   7,C   2,C   6)    177.0729         0.030188   
     96. D(C  18,N   7,C   2,C   4)      3.7122         0.030188   
     97. D(H  13,C   9,N   3,C   4)   -122.9723         0.013329   
     98. D(H   0,C   9,N   3,C   5)   -172.4042         0.013329   
     99. D(H   0,C   9,N   3,C   4)    -19.2140         0.013329   
    100. D(H  14,C   9,N   3,C   5)    -50.9550         0.013329   
    101. D(H  14,C   9,N   3,C   4)    102.2352         0.013329   
    102. D(H  13,C   9,N   3,C   5)     83.8375         0.013329   
    103. D(H  17,C  12,N   1,C   6)    173.0031         0.009111   
    104. D(H  17,C  12,N   1,C   5)    -31.8145         0.009111   
    105. D(H  16,C  12,N   1,C   6)    -63.7748         0.009111   
    106. D(H  16,C  12,N   1,C   5)     91.4076         0.009111   
    107. D(H  15,C  12,N   1,C   6)     82.7286         0.009111   
    108. D(H  15,C  12,N   1,C   5)   -122.0890         0.009111   
    109. D(H  23,C  18,N   7,C  19)    174.5348         0.011709   
    110. D(H  23,C  18,N   7,C   2)     -0.5845         0.011709   
    111. D(H  22,C  18,N   7,C  19)    -61.6667         0.011709   
    112. D(H  22,C  18,N   7,C   2)    123.2140         0.011709   
    113. D(H  21,C  18,N   7,C  19)     39.7568         0.011709   
    114. D(H  21,C  18,N   7,C   2)   -135.3625         0.011709   
    115. D(N  20,C  19,N   7,C  18)   -172.3832         0.012183   
    116. D(N  20,C  19,N   7,C   2)      3.5778         0.012183   
    117. D(H  11,C  19,N   7,C  18)     23.0923         0.012183   
    118. D(H  11,C  19,N   7,C   2)   -160.9467         0.012183   
    119. D(C   6,N  20,C  19,H  11)    160.8367         0.050027   
    120. D(C   6,N  20,C  19,N   7)     -6.2460         0.050027   
    121. D(C  19,N  20,C   6,C   2)      7.1489         0.004556   
    122. D(C  19,N  20,C   6,N   1)    178.6643         0.004556   
    -----------------------------------------------------------------

Number of atoms                         .... 24
Number of degrees of freedom            .... 122

         *************************************************************
         *                GEOMETRY OPTIMIZATION CYCLE   1            *
         *************************************************************
---------------------------------
CARTESIAN COORDINATES (ANGSTROEM)
---------------------------------
  H      3.457477   -0.266020    1.234004
  N     -1.057608   -0.128042    1.224686
  C      0.030864   -0.089295   -0.845427
  N      1.245408   -0.282998    1.225558
  C      1.365668   -0.109498   -0.195326
  C      0.130526   -0.024871    1.844206
  C     -1.162517   -0.038685   -0.164410
  N     -0.182937    0.029037   -2.189361
  O      0.000000    0.000000    3.000302
  C      2.429266   -0.125476    2.107802
  O      2.323789   -0.000000   -0.878176
  H     -2.298844    0.057975   -3.459940
  C     -2.503046    0.204775    1.637811
  H      2.388325   -1.046739    2.531796
  H      2.590896    0.822074    2.722280
  H     -3.023601   -0.798876    1.517511
  H     -2.887387    1.247861    1.386002
  H     -2.282937   -0.076006    2.929405
  C      0.823879    0.086701   -3.303932
  C     -1.633777    0.209689   -2.458217
  N     -2.258269    0.276979   -1.330318
  H      0.538528    1.074796   -4.232667
  H      0.455131   -0.942215   -4.101947
  H      1.677990    0.036031   -2.934408

----------------------------
CARTESIAN COORDINATES (A.U.)
----------------------------
  NO LB      ZA    FRAG     MASS         X           Y           Z
   0 H     1.0000    0     1.008    6.533685   -0.502706    2.331929
   1 N     7.0000    0    14.007   -1.998589   -0.241964    2.314320
   2 C     6.0000    0    12.011    0.058324   -0.168743   -1.597626
   3 N     7.0000    0    14.007    2.353480   -0.534789    2.315970
   4 C     6.0000    0    12.011    2.580739   -0.206921   -0.369113
   5 C     6.0000    0    12.011    0.246659   -0.047000    3.485045
   6 C     6.0000    0    12.011   -2.196839   -0.073105   -0.310691
   7 N     7.0000    0    14.007   -0.345701    0.054873   -4.137293
   8 O     8.0000    0    15.999    0.000000    0.000000    5.669748
   9 C     6.0000    0    12.011    4.590647   -0.237116    3.983168
  10 O     8.0000    0    15.999    4.391324   -0.000000   -1.659511
  11 H     1.0000    0     1.008   -4.344186    0.109557   -6.538339
  12 C     6.0000    0    12.011   -4.730071    0.386969    3.095014
  13 H     1.0000    0     1.008    4.513281   -1.978051    4.784400
  14 H     1.0000    0     1.008    4.896083    1.553494    5.144363
  15 H     1.0000    0     1.008   -5.713777   -1.509657    2.867680
  16 H     1.0000    0     1.008   -5.456371    2.358115    2.619164
  17 H     1.0000    0     1.008   -4.314125   -0.143631    5.535772
  18 C     6.0000    0    12.011    1.556906    0.163841   -6.243527
  19 C     6.0000    0    12.011   -3.087391    0.396256   -4.645356
  20 N     7.0000    0    14.007   -4.267509    0.523414   -2.513937
  21 H     1.0000    0     1.008    1.017670    2.031070   -7.998582
  22 H     1.0000    0     1.008    0.860072   -1.780528   -7.751556
  23 H     1.0000    0     1.008    3.170941    0.068089   -5.545228

--------------------------------
INTERNAL COORDINATES (ANGSTROEM)
--------------------------------
 H      0   0   0     0.000000000000     0.00000000     0.00000000
 N      1   0   0     4.517202368811     0.00000000     0.00000000
 C      2   1   0     2.339153594414    62.43352245     0.00000000
 N      1   2   3     2.212150759745     2.19241744   270.64238180
 C      4   1   3     1.436480899766    85.36162780   358.68863572
 C      4   1   5     1.300890354618   148.61029468   210.09967132
 C      3   2   1     1.374956054801    32.69051566   182.92154041
 N      3   2   1     1.365968812863   143.06422860   184.54508775
 O      6   4   1     1.163706301478   124.94670446   333.11006270
 C      1   2   3     1.356648228343    40.58987895   170.91280314
 O      5   4   1     1.181637684424   130.59324268   358.80886184
 H      8   3   2     2.468252845598   129.91546010   351.66098949
 C      2   1   3     1.539718165375   160.80012389   216.72377969
 H     10   1   2     1.014974062868   101.86458339   103.10742601
 H     10   1   2     1.140858658392   109.00063161   233.65509876
 H     13   2   1     1.136998597511   102.15783218   223.81425388
 H     13   2   1     1.139804097121   117.07063478    77.31083534
 H     13   2   1     1.339962883954    93.38964158   314.08874431
 C      8   3   2     1.503088036076   128.90570853   176.13752419
 C     12   8   3     1.211932850686    26.56299137    23.58287945
 N     20  12   8     1.290996727521   117.59375689   196.57067985
 H     19   8   3     1.385751028618   112.73027755   224.63753327
 H     19   8   3     1.353317780709   103.03659262   123.21399810
 H     19   8   3     0.931998020649   108.52784209   359.41547609

---------------------------
INTERNAL COORDINATES (A.U.)
---------------------------
 H      0   0   0     0.000000000000     0.00000000     0.00000000
 N      1   0   0     8.536275368554     0.00000000     0.00000000
 C      2   1   0     4.420359678620    62.43352245     0.00000000
 N      1   2   3     4.180359102865     2.19241744   270.64238180
 C      4   1   3     2.714555497167    85.36162780   358.68863572
 C      4   1   5     2.458326500488   148.61029468   210.09967132
 C      3   2   1     2.598290389750    32.69051566   182.92154041
 N      3   2   1     2.581306963789   143.06422860   184.54508775
 O      6   4   1     2.199086210111   124.94670446   333.11006270
 C      1   2   3     2.563693611637    40.58987895   170.91280314
 O      5   4   1     2.232971613082   130.59324268   358.80886184
 H      8   3   2     4.664321907452   129.91546010   351.66098949
 C      2   1   3     2.909645655982   160.80012389   216.72377969
 H     10   1   2     1.918023011853   101.86458339   103.10742601
 H     10   1   2     2.155910421875   109.00063161   233.65509876
 H     13   2   1     2.148615963948   102.15783218   223.81425388
 H     13   2   1     2.153917589880   117.07063478    77.31083534
 H     13   2   1     2.532162880292    93.38964158   314.08874431
 C      8   3   2     2.840424743357   128.90570853   176.13752419
 C     12   8   3     2.290221180498    26.56299137    23.58287945
 N     20  12   8     2.439630254803   117.59375689   196.57067985
 H     19   8   3     2.618689933887   112.73027755   224.63753327
 H     19   8   3     2.557399977705   103.03659262   123.21399810
 H     19   8   3     1.761221016383   108.52784209   359.41547609

---------------------
BASIS SET INFORMATION
---------------------
There are 4 groups of distinct atoms

 Group   1 Type H   : 3s contracted to 1s pattern {3}
 Group   2 Type N   : 6s3p contracted to 2s1p pattern {33/3}
 Group   3 Type C   : 6s3p contracted to 2s1p pattern {33/3}
 Group   4 Type O   : 6s3p contracted to 2s1p pattern {33/3}

Atom   0H    basis set group =>   1
Atom   1N    basis set group =>   2
Atom   2C    basis set group =>   3
Atom   3N    basis set group =>   2
Atom   4C    basis set group =>   3
Atom   5C    basis set group =>   3
Atom   6C    basis set group =>   3
Atom   7N    basis set group =>   2
Atom   8O    basis set group =>   4
Atom   9C    basis set group =>   3
Atom  10O    basis set group =>   4
Atom  11H    basis set group =>   1
Atom  12C    basis set group =>   3
Atom  13H    basis set group =>   1
Atom  14H    basis set group =>   1
Atom  15H    basis set group =>   1
Atom  16H    basis set group =>   1
Atom  17H    basis set group =>   1
Atom  18C    basis set group =>   3
Atom  19C    basis set group =>   3
Atom  20N    basis set group =>   2
Atom  21H    basis set group =>   1
Atom  22H    basis set group =>   1
Atom  23H    basis set group =>   1


           ************************************************************
           *        Program running with 4 parallel MPI-processes     *
           *              working on a common directory               *
           ************************************************************
------------------------------------------------------------------------------
                           ORCA GTO INTEGRAL CALCULATION
------------------------------------------------------------------------------

                         BASIS SET STATISTICS AND STARTUP INFO

 # of primitive gaussian shells          ...  156
 # of primitive gaussian functions       ...  240
 # of contracted shells                  ...   52
 # of contracted basis functions         ...   80
 Highest angular momentum                ...    1
 Maximum contraction depth               ...    3
 Integral package used                   ... LIBINT
 Integral threshhold            Thresh   ...  2.500e-11
 Primitive cut-off              TCut     ...  2.500e-12


------------------------------ INTEGRAL EVALUATION ----------------------------


 * One electron integrals 
 Pre-screening matrix                    ... done
 Shell pair data                         ... done (   0.002 sec)



           ************************************************************
           *        Program running with 4 parallel MPI-processes     *
           *              working on a common directory               *
           ************************************************************
-------------------------------------------------------------------------------
                                 ORCA SCF
-------------------------------------------------------------------------------

------------
SCF SETTINGS
------------
Hamiltonian:
 Density Functional     Method          .... DFT(GTOs)
 Exchange Functional    Exchange        .... B88
   X-Alpha parameter    XAlpha          ....  0.666667
   Becke's b parameter  XBeta           ....  0.004200
 Correlation Functional Correlation     .... LYP
 LDA part of GGA corr.  LDAOpt          .... VWN-5
 Gradients option       PostSCFGGA      .... off
 Hybrid DFT is turned on
   Fraction HF Exchange ScalHFX         ....  0.200000
   Scaling of DF-GGA-X  ScalDFX         ....  0.720000
   Scaling of DF-GGA-C  ScalDFC         ....  0.810000
   Scaling of DF-LDA-C  ScalLDAC        ....  1.000000
   Perturbative correction              ....  0.000000
   Density functional embedding theory  .... OFF
   NL short-range parameter             ....  4.800000


General Settings:
 Integral files         IntName         .... go
 Hartree-Fock type      HFTyp           .... RHF
 Total Charge           Charge          ....    0
 Multiplicity           Mult            ....    1
 Number of Electrons    NEL             ....  102
 Basis Dimension        Dim             ....   80
 Nuclear Repulsion      ENuc            ....    920.9835543288 Eh

Convergence Acceleration:
 DIIS                   CNVDIIS         .... on
   Start iteration      DIISMaxIt       ....    12
   Startup error        DIISStart       ....  0.200000
   # of expansion vecs  DIISMaxEq       ....     5
   Bias factor          DIISBfac        ....   1.050
   Max. coefficient     DIISMaxC        ....  10.000
 Newton-Raphson         CNVNR           .... off
 SOSCF                  CNVSOSCF        .... on
   Start iteration      SOSCFMaxIt      ....   150
   Startup grad/error   SOSCFStart      ....  0.003300
 Level Shifting         CNVShift        .... on
   Level shift para.    LevelShift      ....    0.2500
   Turn off err/grad.   ShiftErr        ....    0.0010
 Zerner damping         CNVZerner       .... off
 Static damping         CNVDamp         .... on
   Fraction old density DampFac         ....    0.7000
   Max. Damping (<1)    DampMax         ....    0.9800
   Min. Damping (>=0)   DampMin         ....    0.0000
   Turn off err/grad.   DampErr         ....    0.1000
 Fernandez-Rico         CNVRico         .... off

SCF Procedure:
 Maximum # iterations   MaxIter         ....   125
 SCF integral mode      SCFMode         .... Direct
   Integral package                     .... LIBINT
 Reset frequency        DirectResetFreq ....    20
 Integral Threshold     Thresh          ....  2.500e-11 Eh
 Primitive CutOff       TCut            ....  2.500e-12 Eh

Convergence Tolerance:
 Convergence Check Mode ConvCheckMode   .... Total+1el-Energy
 Convergence forced     ConvForced      .... 0
 Energy Change          TolE            ....  1.000e-08 Eh
 1-El. energy change                    ....  1.000e-05 Eh
 Orbital Gradient       TolG            ....  1.000e-05
 Orbital Rotation angle TolX            ....  1.000e-05
 DIIS Error             TolErr          ....  5.000e-07


Diagonalization of the overlap matrix:
Smallest eigenvalue                        ... 1.861e-01
Time for diagonalization                   ...    0.111 sec
Threshold for overlap eigenvalues          ... 1.000e-08
Number of eigenvalues below threshold      ... 0
Time for construction of square roots      ...    0.002 sec
Total time needed                          ...    0.113 sec

--------------
OVERLAP MATRIX
--------------
                  0          1          2          3          4          5    
      0       1.000000   0.000000   0.000133   0.000001   0.000261  -0.000008
      1       0.000000   1.000000   0.235038   0.000000  -0.000000   0.000000
      2       0.000133   0.235038   1.000000   0.000000  -0.000000   0.000000
      3       0.000001   0.000000   0.000000   1.000000   0.000000  -0.000000
      4       0.000261  -0.000000  -0.000000   0.000000   1.000000  -0.000000
      5      -0.000008   0.000000   0.000000  -0.000000  -0.000000   1.000000
      6       0.000007   0.000000   0.000946  -0.002084   0.001096   0.000039
      7       0.001311   0.001842   0.052680  -0.065633   0.034510   0.001228
      8       0.001249   0.003683   0.073157  -0.078663   0.052673   0.001875
      9       0.002058  -0.001937  -0.038466   0.052673  -0.006183  -0.000986
     10      -0.000106  -0.000069  -0.001369   0.001875  -0.000986   0.021478
     11       0.003626   0.000000   0.000802   0.000001   0.001998  -0.000134
     12       0.066721   0.000802   0.039451   0.000023   0.060784  -0.004090
     13       0.000318  -0.000001  -0.000023   0.015787  -0.000039   0.000003
     14       0.083341  -0.001998  -0.060784  -0.000039  -0.086221   0.006864
     15       0.000640   0.000134   0.004090   0.000003   0.006864   0.015326
     16       0.001899   0.000000   0.000093  -0.000140   0.000240   0.000002
     17       0.046540   0.000288   0.016426  -0.013135   0.022414   0.000172
     18       0.036853   0.000395   0.014554  -0.006345   0.021181   0.000162
     19       0.053934  -0.000674  -0.024837   0.021181  -0.030080  -0.000277
     20      -0.004036  -0.000005  -0.000190   0.000162  -0.000277   0.006065
     21       0.000100   0.000000   0.033747   0.025976   0.049818   0.004326
     22       0.006810   0.033405   0.347835   0.159900   0.306661   0.026629
     23      -0.002024  -0.025581  -0.185263   0.088662  -0.213115  -0.018506
     24       0.011035  -0.049059  -0.355302  -0.213115  -0.208933  -0.035491
     25      -0.000800  -0.004260  -0.030852  -0.018506  -0.035491   0.196704
     26       0.000000   0.000000   0.029108  -0.048795  -0.003685   0.003139
     27       0.000105   0.029493   0.321681  -0.326938  -0.024692   0.021031
     28       0.000064   0.048717   0.377926  -0.313333  -0.037288   0.031760
     29       0.000213   0.003679   0.028542  -0.037288   0.177574   0.002399
     30      -0.000010  -0.003134  -0.024311   0.031760   0.002399   0.178348
     31       0.000000   0.000000   0.000001  -0.000003   0.000001   0.000000
     32       0.000023   0.000001   0.000887  -0.001769   0.000453   0.000081
     33       0.000033   0.000003   0.001769  -0.003312   0.000923   0.000166
     34       0.000035  -0.000001  -0.000453   0.000923   0.000055  -0.000042
     35      -0.000003  -0.000000  -0.000081   0.000166  -0.000042   0.000284
     36       0.000007   0.000000   0.001749   0.003403   0.002027   0.000245
     37       0.000527   0.000725   0.049385   0.067279   0.040073   0.004852
     38      -0.000398  -0.001585  -0.059488  -0.068911  -0.052945  -0.006410
     39       0.000780  -0.000944  -0.035433  -0.052945  -0.011557  -0.003818
     40      -0.000060  -0.000114  -0.004290  -0.006410  -0.003818   0.019517
     41       0.033709   0.000000   0.000001   0.000001   0.000003   0.000000
     42       0.349753   0.000006   0.001578   0.000726   0.002865   0.000002
     43      -0.236338  -0.000005  -0.000809   0.000140  -0.001511  -0.000001
     44       0.278102  -0.000020  -0.003196  -0.001511  -0.005443  -0.000004
     45      -0.038013  -0.000000  -0.000002  -0.000001  -0.000004   0.000523
     46       0.001689   0.000000   0.000000  -0.000000   0.000000   0.000000
     47       0.031205   0.000000   0.000047  -0.000064   0.000103   0.000004
     48       0.033136   0.000000   0.000056  -0.000062   0.000124   0.000005
     49       0.017785  -0.000000  -0.000090   0.000124  -0.000184  -0.000008
     50      -0.004173  -0.000000  -0.000003   0.000005  -0.000008   0.000014
     51       0.000000   0.000000   0.000041  -0.000081  -0.000022   0.000003
     52       0.000000   0.000000   0.018996   0.008926  -0.031231   0.007191
     53       0.000001   0.020676   0.255980   0.074537  -0.260790   0.060048
     54      -0.000000  -0.009319  -0.085623   0.104003   0.107972  -0.024861
     55       0.000004   0.032604   0.299576   0.107972  -0.242909   0.086983
     56      -0.000000  -0.007507  -0.068978  -0.024861   0.086983   0.114835
     57       0.150815   0.000013   0.001335   0.000787   0.002076  -0.000553
     58       0.112135   0.000004   0.000608   0.000404   0.000983   0.000256
     59       0.000001   0.004857   0.083727   0.014222  -0.095482  -0.032580
     60       0.000001   0.002908   0.056346   0.005040  -0.057172   0.042990
     61       0.000004   0.004830   0.083364   0.082389  -0.059220   0.002515
     62       0.000000   0.000000   0.000000  -0.000000   0.000000   0.000000
     63       0.000024   0.000000   0.000010  -0.000023   0.000010   0.000001
     64       0.000047   0.000000   0.000026  -0.000056   0.000025   0.000003
     65       0.000027  -0.000000  -0.000011   0.000025  -0.000007  -0.000001
     66      -0.000004  -0.000000  -0.000001   0.000003  -0.000001   0.000003
     67       0.000000   0.000000   0.000000  -0.000001  -0.000000   0.000000
     68       0.000000   0.000003   0.000968  -0.001840  -0.000288   0.000169
     69       0.000001   0.000009   0.002056  -0.003679  -0.000625   0.000366
     70       0.000001   0.000001   0.000322  -0.000625   0.000219   0.000057
     71      -0.000000  -0.000001  -0.000189   0.000366   0.000057   0.000283
     72       0.000000   0.000000   0.000052  -0.000143  -0.000067   0.000023
     73       0.000000   0.000052   0.008561  -0.013535  -0.006360   0.002146
     74       0.000000   0.000143   0.013535  -0.019505  -0.010604   0.003577
     75       0.000000   0.000067   0.006360  -0.010604  -0.001924   0.001681
     76      -0.000000  -0.000023  -0.002146   0.003577   0.001681   0.002492
     77       0.000001   0.000000   0.000001  -0.000002   0.000001   0.000000
     78       0.000002   0.000000   0.000002  -0.000005   0.000001  -0.000001
     79       0.000413   0.000000   0.000025  -0.000044   0.000029   0.000002
                  6          7          8          9         10         11    
      0       0.000007   0.001311   0.001249   0.002058  -0.000106   0.003626
      1       0.000000   0.001842   0.003683  -0.001937  -0.000069   0.000000
      2       0.000946   0.052680   0.073157  -0.038466  -0.001369   0.000802
      3      -0.002084  -0.065633  -0.078663   0.052673   0.001875   0.000001
      4       0.001096   0.034510   0.052673  -0.006183  -0.000986   0.001998
      5       0.000039   0.001228   0.001875  -0.000986   0.021478  -0.000134
      6       1.000000   0.248362  -0.000000   0.000000   0.000000   0.000000
      7       0.248362   1.000000  -0.000000  -0.000000   0.000000   0.001430
      8      -0.000000  -0.000000   1.000000  -0.000000   0.000000   0.002858
      9       0.000000  -0.000000  -0.000000   1.000000   0.000000   0.001676
     10       0.000000   0.000000   0.000000   0.000000   1.000000  -0.000267
     11       0.000000   0.001430   0.002858   0.001676  -0.000267   1.000000
     12       0.000689   0.044819   0.061508   0.036072  -0.005753   0.235038
     13      -0.001518  -0.055267  -0.064923  -0.048631   0.007756   0.000000
     14      -0.000890  -0.032412  -0.048631  -0.010519   0.004549   0.000000
     15       0.000142   0.005169   0.007756   0.004549   0.017275  -0.000000
     16       0.000000   0.030516   0.022256   0.045697  -0.000692   0.000000
     17       0.030516   0.323632   0.156213   0.320741  -0.004855   0.026726
     18      -0.022256  -0.156213   0.085719  -0.198249   0.003001   0.043934
     19      -0.045697  -0.320741  -0.198249  -0.224776   0.006161  -0.003718
     20       0.000692   0.004855   0.003001   0.006161   0.182180  -0.005365
     21       0.000000   0.000633   0.001621   0.000060   0.000039   0.000001
     22       0.000633   0.033195   0.052110   0.001931   0.001248   0.036981
     23      -0.001621  -0.052110  -0.075630  -0.003287  -0.002125  -0.029282
     24      -0.000060  -0.001931  -0.003287   0.012952  -0.000079   0.052769
     25      -0.000039  -0.001248  -0.002125  -0.000079   0.013023  -0.012218
     26       0.000001   0.039825   0.032699  -0.057300   0.002430   0.000000
     27       0.039825   0.377301   0.196593  -0.344499   0.014610   0.000311
     28      -0.032699  -0.196593   0.087615   0.237043  -0.010053   0.000417
     29       0.057300   0.344499   0.237043  -0.192496   0.017616   0.000722
     30      -0.002430  -0.014610  -0.010053   0.017616   0.222139  -0.000073
     31       0.000000   0.031693  -0.051767  -0.008235   0.004558   0.000000
     32       0.031708   0.336592  -0.386198  -0.061439   0.034005   0.000000
     33       0.052267   0.333654  -0.304949  -0.078955   0.043699   0.000001
     34       0.008315   0.053080  -0.078955   0.178796   0.006952   0.000000
     35      -0.004602  -0.029378   0.043699   0.006952   0.187509  -0.000000
     36       0.000000   0.000001   0.000004  -0.000000   0.000000   0.000000
     37       0.000000   0.000289   0.000710  -0.000006   0.000016   0.000386
     38      -0.000000  -0.000555  -0.001291   0.000011  -0.000032  -0.000842
     39       0.000000   0.000004   0.000011   0.000091   0.000000   0.000591
     40      -0.000000  -0.000013  -0.000032   0.000000   0.000090  -0.000134
     41       0.000000   0.000003   0.000008   0.000006  -0.000000   0.000000
     42       0.000003   0.001643   0.002526   0.002051  -0.000031   0.023726
     43      -0.000008  -0.002526  -0.003447  -0.003244   0.000049  -0.023514
     44      -0.000006  -0.002051  -0.003244  -0.002087   0.000040  -0.031552
     45       0.000000   0.000031   0.000049   0.000040   0.000547  -0.004198
     46       0.000000   0.001716  -0.000055   0.003833   0.000149   0.000000
     47       0.000296   0.040735  -0.000972   0.068068   0.002651   0.000124
     48       0.000012   0.000773   0.015697   0.001409   0.000055   0.000320
     49      -0.000815  -0.054129   0.001409  -0.082916  -0.003841  -0.000164
     50      -0.000032  -0.002108   0.000055  -0.003841   0.015568  -0.000043
     51       0.000064   0.005115  -0.006427  -0.005727   0.000362   0.000000
     52       0.000000   0.000010   0.000025  -0.000025   0.000003   0.000000
     53       0.000010   0.003425   0.004505  -0.004597   0.000534   0.000002
     54      -0.000025  -0.004505  -0.004984   0.006281  -0.000729  -0.000001
     55       0.000025   0.004597   0.006281  -0.005238   0.000744   0.000007
     56      -0.000003  -0.000534  -0.000729   0.000744   0.001085  -0.000001
     57       0.000002   0.000701   0.001068   0.000746  -0.000303   0.007882
     58       0.000001   0.000321   0.000511   0.000367   0.000130   0.002901
     59       0.000010   0.001667   0.001817  -0.002349  -0.000546   0.000001
     60       0.000011   0.001748   0.001801  -0.002356   0.001079   0.000001
     61       0.000001   0.000384   0.000647  -0.000397   0.000002   0.000008
     62       0.000000   0.000956  -0.002237   0.000722   0.000160   0.000000
     63       0.000956   0.041990  -0.061170   0.019731   0.004379   0.000000
     64       0.002237   0.061170  -0.080322   0.031361   0.006960   0.000000
     65      -0.000722  -0.019731   0.031361   0.006788  -0.002245   0.000000
     66      -0.000160  -0.004379   0.006960  -0.002245   0.016406  -0.000000
     67       0.000000   0.002451  -0.003771  -0.003892   0.000699   0.000000
     68       0.002451   0.072339  -0.071979  -0.074293   0.013344   0.000000
     69       0.003771   0.071979  -0.048699  -0.082142   0.014753   0.000000
     70       0.003892   0.074293  -0.082142  -0.053899   0.015228   0.000000
     71      -0.000699  -0.013344   0.014753   0.015228   0.028149  -0.000000
     72       0.000000   0.001658  -0.000776  -0.003663   0.000586   0.000000
     73       0.000829   0.049237  -0.015932  -0.075216   0.012035   0.000000
     74       0.000428   0.014304   0.014890  -0.023961   0.003834   0.000000
     75       0.002018   0.067526  -0.023961  -0.093153   0.018100   0.000000
     76      -0.000323  -0.010805   0.003834   0.018100   0.017069  -0.000000
     77       0.000040   0.003829  -0.006157   0.000923   0.002116   0.000000
     78       0.000100   0.006777  -0.010746   0.001400  -0.002815   0.000000
     79       0.001301   0.035975  -0.040730   0.032115   0.002444   0.000002
                 12         13         14         15         16         17    
      0       0.066721   0.000318   0.083341   0.000640   0.001899   0.046540
      1       0.000802  -0.000001  -0.001998   0.000134   0.000000   0.000288
      2       0.039451  -0.000023  -0.060784   0.004090   0.000093   0.016426
      3       0.000023   0.015787  -0.000039   0.000003  -0.000140  -0.013135
      4       0.060784  -0.000039  -0.086221   0.006864   0.000240   0.022414
      5      -0.004090   0.000003   0.006864   0.015326   0.000002   0.000172
      6       0.000689  -0.001518  -0.000890   0.000142   0.000000   0.030516
      7       0.044819  -0.055267  -0.032412   0.005169   0.030516   0.323632
      8       0.061508  -0.064923  -0.048631   0.007756   0.022256   0.156213
      9       0.036072  -0.048631  -0.010519   0.004549   0.045697   0.320741
     10      -0.005753   0.007756   0.004549   0.017275  -0.000692  -0.004855
     11       0.235038   0.000000   0.000000  -0.000000   0.000000   0.026726
     12       1.000000   0.000000   0.000000  -0.000000   0.025878   0.302150
     13       0.000000   1.000000   0.000000  -0.000000  -0.043505  -0.310743
     14       0.000000   0.000000   1.000000  -0.000000   0.003682   0.026301
     15      -0.000000  -0.000000  -0.000000   1.000000   0.005312   0.037944
     16       0.025878  -0.043505   0.003682   0.005312   1.000000   0.248362
     17       0.302150  -0.310743   0.026301   0.037944   0.248362   1.000000
     18       0.358570  -0.302346   0.039672   0.057235   0.000000   0.000000
     19      -0.030349   0.039672   0.163027  -0.004844   0.000000  -0.000000
     20      -0.043784   0.057235  -0.004844   0.159396  -0.000000   0.000000
     21       0.038051   0.030063  -0.054178   0.012544   0.000000   0.002058
     22       0.370398   0.172054  -0.310063   0.071788   0.002058   0.065330
     23      -0.199729   0.094494   0.220987  -0.051165  -0.004000  -0.081531
     24       0.359936   0.220987  -0.181127   0.092205   0.002422   0.049375
     25      -0.083335  -0.051165   0.092205   0.195771  -0.000166  -0.003383
     26       0.000102  -0.000151  -0.000262   0.000027   0.000000   0.001206
     27       0.017218  -0.013507  -0.023399   0.002374   0.001206   0.047970
     28       0.014968  -0.006155  -0.021716   0.002203  -0.000035  -0.000887
     29       0.025930  -0.021716  -0.031239   0.003817   0.002902   0.072522
     30      -0.002631   0.002203   0.003817   0.005993  -0.000081  -0.002031
     31       0.000000  -0.000001  -0.000000   0.000000   0.000000   0.000908
     32       0.000440  -0.000870  -0.000364   0.000079   0.000391   0.033614
     33       0.000870  -0.001603  -0.000730   0.000160   0.000828   0.039207
     34       0.000364  -0.000730  -0.000163   0.000067   0.000643   0.030449
     35      -0.000079   0.000160   0.000067   0.000128  -0.000058  -0.002724
     36       0.001075   0.002088  -0.001465   0.000333   0.000000   0.000009
     37       0.036093   0.048047  -0.033717   0.007662   0.000000   0.001148
     38      -0.042605  -0.047455   0.043239  -0.009825  -0.000000  -0.001870
     39       0.029898   0.043239  -0.016181   0.006895   0.000000   0.000799
     40      -0.006794  -0.009825   0.006895   0.012595  -0.000000  -0.000064
     41       0.022431   0.022945   0.030789   0.004097   0.000000   0.001172
     42       0.279897   0.176494   0.236833   0.031512   0.001172   0.047179
     43      -0.203229  -0.009903  -0.215799  -0.028714  -0.002569  -0.064900
     44      -0.272708  -0.215799  -0.138658  -0.038530  -0.001186  -0.029971
     45      -0.036286  -0.028714  -0.038530   0.145790   0.000018   0.000450
     46       0.000448  -0.001030   0.000528   0.000139   0.000002   0.039528
     47       0.020680  -0.031559   0.016177   0.004245   0.040104   0.380785
     48       0.028060  -0.038139   0.023521   0.006173   0.038664   0.191377
     49      -0.014384   0.023521  -0.004310  -0.003164  -0.054250  -0.268525
     50      -0.003775   0.006173  -0.003164   0.006916  -0.006200  -0.030688
     51       0.000001  -0.000001  -0.000001   0.000000   0.000000   0.000080
     52       0.000000   0.000000  -0.000001   0.000000   0.000000   0.000000
     53       0.000790   0.000167  -0.001522   0.000198   0.000000   0.000334
     54      -0.000187   0.000217   0.000368  -0.000048  -0.000000  -0.000311
     55       0.001702   0.000368  -0.003092   0.000436   0.000000   0.000657
     56      -0.000222  -0.000048   0.000436   0.000201  -0.000000  -0.000053
     57       0.122828   0.098200   0.085922  -0.057416   0.000348   0.015042
     58       0.056233   0.046662   0.041947   0.034452   0.000144   0.008543
     59       0.000269   0.000034  -0.000502  -0.000061   0.000000   0.000132
     60       0.000192   0.000013  -0.000346   0.000128   0.000000   0.000144
     61       0.000917   0.000698  -0.001446   0.000085   0.000000   0.000115
     62       0.000000  -0.000000  -0.000000   0.000000   0.000000   0.000079
     63       0.000045  -0.000101  -0.000009   0.000008   0.000079   0.010367
     64       0.000114  -0.000247  -0.000024   0.000021   0.000234   0.017724
     65       0.000011  -0.000024   0.000012   0.000002   0.000041   0.003089
     66      -0.000009   0.000021   0.000002   0.000012  -0.000015  -0.001119
     67       0.000000  -0.000000  -0.000000   0.000000   0.000000   0.000003
     68       0.000025  -0.000047  -0.000036   0.000006   0.000003   0.001823
     69       0.000053  -0.000089  -0.000076   0.000013   0.000007   0.002152
     70       0.000041  -0.000076  -0.000051   0.000010   0.000009   0.002853
     71      -0.000007   0.000013   0.000010   0.000006  -0.000001  -0.000304
     72       0.000000  -0.000000  -0.000000   0.000000   0.000000   0.000002
     73       0.000029  -0.000042  -0.000057   0.000009   0.000000   0.000751
     74       0.000042  -0.000052  -0.000083   0.000013   0.000000   0.000438
     75       0.000057  -0.000083  -0.000105   0.000018   0.000001   0.001398
     76      -0.000009   0.000013   0.000018   0.000006  -0.000000  -0.000149
     77       0.000002  -0.000004  -0.000000   0.000001   0.000002   0.000587
     78       0.000004  -0.000010  -0.000001  -0.000001   0.000005   0.001029
     79       0.000392  -0.000718   0.000075   0.000055   0.000956   0.029256
                 18         19         20         21         22         23    
      0       0.036853   0.053934  -0.004036   0.000100   0.006810  -0.002024
      1       0.000395  -0.000674  -0.000005   0.000000   0.033405  -0.025581
      2       0.014554  -0.024837  -0.000190   0.033747   0.347835  -0.185263
      3      -0.006345   0.021181   0.000162   0.025976   0.159900   0.088662
      4       0.021181  -0.030080  -0.000277   0.049818   0.306661  -0.213115
      5       0.000162  -0.000277   0.006065   0.004326   0.026629  -0.018506
      6      -0.022256  -0.045697   0.000692   0.000000   0.000633  -0.001621
      7      -0.156213  -0.320741   0.004855   0.000633   0.033195  -0.052110
      8       0.085719  -0.198249   0.003001   0.001621   0.052110  -0.075630
      9      -0.198249  -0.224776   0.006161   0.000060   0.001931  -0.003287
     10       0.003001   0.006161   0.182180   0.000039   0.001248  -0.002125
     11       0.043934  -0.003718  -0.005365   0.000001   0.036981  -0.029282
     12       0.358570  -0.030349  -0.043784   0.038051   0.370398  -0.199729
     13      -0.302346   0.039672   0.057235   0.030063   0.172054   0.094494
     14       0.039672   0.163027  -0.004844  -0.054178  -0.310063   0.220987
     15       0.057235  -0.004844   0.159396   0.012544   0.071788  -0.051165
     16       0.000000   0.000000  -0.000000   0.000000   0.002058  -0.004000
     17       0.000000  -0.000000   0.000000   0.002058   0.065330  -0.081531
     18       1.000000  -0.000000   0.000000   0.004000   0.081531  -0.085052
     19      -0.000000   1.000000  -0.000000  -0.002422  -0.049375   0.068198
     20       0.000000  -0.000000   1.000000   0.000166   0.003383  -0.004673
     21       0.004000  -0.002422   0.000166   1.000000   0.248362  -0.000000
     22       0.081531  -0.049375   0.003383   0.248362   1.000000   0.000000
     23      -0.085052   0.068198  -0.004673  -0.000000   0.000000   1.000000
     24       0.068198  -0.013741   0.002830  -0.000000   0.000000   0.000000
     25      -0.004673   0.002830   0.027365   0.000000   0.000000   0.000000
     26       0.000035  -0.002902   0.000081   0.000000   0.002035  -0.003897
     27       0.000887  -0.072522   0.002031   0.002035   0.064921  -0.079753
     28       0.019552   0.001468  -0.000041   0.003897   0.079753  -0.081039
     29       0.001468  -0.100518   0.003364   0.002509   0.051341  -0.069786
     30      -0.000041   0.003364   0.019476   0.000027   0.000548  -0.000746
     31      -0.001746  -0.001356   0.000121   0.000000   0.000000  -0.000002
     32      -0.043544  -0.033817   0.003025   0.000000   0.000332  -0.000764
     33      -0.041936  -0.042772   0.003826   0.000000   0.000681  -0.001482
     34      -0.042772  -0.020079   0.002972   0.000000   0.000053  -0.000123
     35       0.003826   0.002972   0.012873  -0.000000  -0.000009   0.000021
     36       0.000027  -0.000012   0.000001   0.000003   0.041186   0.069273
     37       0.002369  -0.001012   0.000081   0.042490   0.391033   0.462588
     38      -0.003577   0.001687  -0.000135  -0.070210  -0.334423  -0.305497
     39       0.001687  -0.000351   0.000058   0.007927   0.037757   0.060738
     40      -0.000135   0.000058   0.000365  -0.001510  -0.007195  -0.011573
     41       0.002569   0.001186  -0.000018   0.000000   0.002640   0.000664
     42       0.064900   0.029971  -0.000450   0.002640   0.075537   0.012328
     43      -0.078524  -0.045136   0.000678  -0.000664  -0.012328   0.030178
     44      -0.045136  -0.001630   0.000313  -0.005790  -0.107513  -0.019534
     45       0.000678   0.000313   0.019210   0.000253   0.004705   0.000855
     46      -0.038582   0.054136   0.006187   0.000000   0.000008  -0.000021
     47      -0.264211   0.370720   0.042367   0.000000   0.001073  -0.001884
     48       0.044671   0.251890   0.028787   0.000000   0.001487  -0.002324
     49       0.251890  -0.129241  -0.040392  -0.000000  -0.001198   0.002150
     50       0.028787  -0.040392   0.219576  -0.000000  -0.000014   0.000024
     51      -0.000115  -0.000129   0.000006   0.000000   0.000003  -0.000006
     52       0.000000  -0.000000   0.000000   0.000000   0.000747  -0.000147
     53       0.000311  -0.000657   0.000053   0.000747   0.036452  -0.004417
     54      -0.000187   0.000622  -0.000050   0.000147   0.004417   0.013897
     55       0.000622  -0.001204   0.000107   0.001871   0.056360  -0.007423
     56      -0.000050   0.000107   0.000099  -0.000163  -0.004915   0.000647
     57       0.020886   0.007832  -0.007178   0.001718   0.043463   0.016457
     58       0.012281   0.005157   0.003921   0.001002   0.030176   0.014162
     59       0.000100  -0.000256  -0.000040   0.000164   0.009289  -0.001502
     60       0.000100  -0.000270   0.000086   0.000139   0.008368  -0.001887
     61       0.000158  -0.000185   0.000002   0.001369   0.037237   0.021963
     62      -0.000234  -0.000041   0.000015   0.000000   0.000000  -0.000000
     63      -0.017724  -0.003089   0.001119   0.000000   0.000011  -0.000028
     64      -0.028320  -0.005589   0.002024   0.000000   0.000028  -0.000069
     65      -0.005589   0.002771   0.000353  -0.000000  -0.000004   0.000010
     66       0.002024   0.000353   0.003618  -0.000000  -0.000001   0.000002
     67      -0.000007  -0.000009   0.000001   0.000000   0.000000  -0.000000
     68      -0.002152  -0.002853   0.000304   0.000000   0.000091  -0.000197
     69      -0.002007  -0.003469   0.000369   0.000000   0.000197  -0.000402
     70      -0.003469  -0.003988   0.000489   0.000000   0.000081  -0.000177
     71       0.000369   0.000489   0.000558  -0.000000  -0.000011   0.000023
     72      -0.000002  -0.000006   0.000001   0.000000   0.000001  -0.000002
     73      -0.000490  -0.001564   0.000167   0.000000   0.000416  -0.000754
     74      -0.000047  -0.000930   0.000099   0.000000   0.000673  -0.001105
     75      -0.000930  -0.002726   0.000317   0.000000   0.000506  -0.000932
     76       0.000099   0.000317   0.000210  -0.000000  -0.000064   0.000118
     77      -0.001066  -0.000218   0.000313   0.000000   0.000001  -0.000002
     78      -0.001830  -0.000427  -0.000390   0.000000   0.000001  -0.000003
     79      -0.042728   0.004872   0.002270   0.000000   0.000055  -0.000114
                 24         25         26         27         28         29    
      0       0.011035  -0.000800   0.000000   0.000105   0.000064   0.000213
      1      -0.049059  -0.004260   0.000000   0.029493   0.048717   0.003679
      2      -0.355302  -0.030852   0.029108   0.321681   0.377926   0.028542
      3      -0.213115  -0.018506  -0.048795  -0.326938  -0.313333  -0.037288
      4      -0.208933  -0.035491  -0.003685  -0.024692  -0.037288   0.177574
      5      -0.035491   0.196704   0.003139   0.021031   0.031760   0.002399
      6      -0.000060  -0.000039   0.000001   0.039825  -0.032699   0.057300
      7      -0.001931  -0.001248   0.039825   0.377301  -0.196593   0.344499
      8      -0.003287  -0.002125   0.032699   0.196593   0.087615   0.237043
      9       0.012952  -0.000079  -0.057300  -0.344499   0.237043  -0.192496
     10      -0.000079   0.013023   0.002430   0.014610  -0.010053   0.017616
     11       0.052769  -0.012218   0.000000   0.000311   0.000417   0.000722
     12       0.359936  -0.083335   0.000102   0.017218   0.014968   0.025930
     13       0.220987  -0.051165  -0.000151  -0.013507  -0.006155  -0.021716
     14      -0.181127   0.092205  -0.000262  -0.023399  -0.021716  -0.031239
     15       0.092205   0.195771   0.000027   0.002374   0.002203   0.003817
     16       0.002422  -0.000166   0.000000   0.001206  -0.000035   0.002902
     17       0.049375  -0.003383   0.001206   0.047970  -0.000887   0.072522
     18       0.068198  -0.004673   0.000035   0.000887   0.019552   0.001468
     19      -0.013741   0.002830  -0.002902  -0.072522   0.001468  -0.100518
     20       0.002830   0.027365   0.000081   0.002031  -0.000041   0.003364
     21      -0.000000   0.000000   0.000000   0.002035   0.003897   0.002509
     22       0.000000   0.000000   0.002035   0.064921   0.079753   0.051341
     23       0.000000   0.000000  -0.003897  -0.079753  -0.081039  -0.069786
     24       1.000000   0.000000  -0.002509  -0.051341  -0.069786  -0.017558
     25       0.000000   1.000000  -0.000027  -0.000548  -0.000746  -0.000480
     26      -0.002509  -0.000027   1.000000   0.248362  -0.000000  -0.000000
     27      -0.051341  -0.000548   0.248362   1.000000   0.000000   0.000000
     28      -0.069786  -0.000746  -0.000000   0.000000   1.000000   0.000000
     29      -0.017558  -0.000480  -0.000000   0.000000   0.000000   1.000000
     30      -0.000480   0.027362   0.000000   0.000000   0.000000   0.000000
     31      -0.000000   0.000000   0.000000   0.002519  -0.004932   0.002386
     32      -0.000059   0.000010   0.001398   0.064387  -0.088918   0.043015
     33      -0.000123   0.000021   0.003015   0.079591  -0.094818   0.058874
     34       0.000097   0.000002  -0.001458  -0.038503   0.058874  -0.001597
     35       0.000002   0.000106  -0.000101  -0.002662   0.004070  -0.001969
     36      -0.007821   0.001490   0.000000   0.000015   0.000047   0.000017
     37      -0.052227   0.009952   0.000000   0.001660   0.003408   0.001252
     38       0.060738  -0.011573  -0.000001  -0.002698  -0.005145  -0.002088
     39       0.225613   0.001307  -0.000000  -0.000991  -0.002088  -0.000228
     40       0.001307   0.232221  -0.000000  -0.000033  -0.000069  -0.000026
     41       0.005790  -0.000253   0.000000   0.000000   0.000000   0.000001
     42       0.107513  -0.004705   0.000000   0.000385   0.000446   0.000704
     43      -0.019534   0.000855  -0.000000  -0.000446  -0.000399  -0.000828
     44      -0.137928   0.007455  -0.000001  -0.000704  -0.000828  -0.001184
     45       0.007455   0.032092   0.000000   0.000017   0.000020   0.000032
     46       0.000017   0.000000   0.000000   0.000006  -0.000004   0.000019
     47       0.001518   0.000017   0.000000   0.000856  -0.000393   0.001920
     48       0.002150   0.000024   0.000000   0.000310   0.000129   0.000709
     49      -0.001387  -0.000020  -0.000000  -0.001512   0.000709  -0.003189
     50      -0.000020   0.000345  -0.000000  -0.000017   0.000008  -0.000038
     51      -0.000003   0.000000   0.000068   0.005350  -0.008490  -0.002928
     52      -0.001871   0.000163   0.000000   0.003214   0.005534  -0.004116
     53      -0.056360   0.004915   0.003214   0.084765   0.095529  -0.071057
     54      -0.007423   0.000647  -0.005534  -0.095529  -0.083560   0.089606
     55      -0.080238   0.008259   0.004116   0.071057   0.089606  -0.029743
     56       0.008259   0.013759  -0.000748  -0.012905  -0.016274   0.012105
     57       0.054038  -0.024457   0.000000   0.000245   0.000293   0.000386
     58       0.039681   0.013659   0.000000   0.000112   0.000142   0.000184
     59      -0.014502  -0.003559   0.001481   0.039270   0.036058  -0.039899
     60      -0.012429   0.005242   0.001346   0.036812   0.030991  -0.034478
     61      -0.048844  -0.001035   0.000148   0.008711   0.013293  -0.004814
     62       0.000000   0.000000   0.000000   0.000004  -0.000013   0.000008
     63       0.000004   0.000001   0.000004   0.002146  -0.003528   0.002232
     64       0.000010   0.000002   0.000013   0.003528  -0.005263   0.003787
     65       0.000002  -0.000000  -0.000008  -0.002232   0.003787  -0.001674
     66      -0.000000   0.000003  -0.000001  -0.000141   0.000239  -0.000151
     67      -0.000000   0.000000   0.000000   0.002300  -0.005031  -0.001034
     68      -0.000081   0.000011   0.002300   0.069709  -0.098352  -0.020206
     69      -0.000177   0.000023   0.005031   0.098352  -0.124332  -0.031631
     70      -0.000043   0.000010   0.001034   0.020206  -0.031631   0.023131
     71       0.000010   0.000028  -0.000545  -0.010650   0.016671   0.003425
     72      -0.000001   0.000000   0.000000   0.016350  -0.020000  -0.018797
     73      -0.000567   0.000072   0.014274   0.219470  -0.201817  -0.189673
     74      -0.000932   0.000118   0.018484   0.176390  -0.085108  -0.184753
     75      -0.000568   0.000089   0.017371   0.165776  -0.184753  -0.062161
     76       0.000089   0.000123  -0.005004  -0.047757   0.053224   0.050021
     77       0.000000   0.000000   0.000000   0.000264  -0.000476   0.000199
     78       0.000000  -0.000000   0.000001   0.000484  -0.000855   0.000351
     79       0.000037   0.000001   0.000008   0.001483  -0.001889   0.001937
                 30         31         32         33         34         35    
      0      -0.000010   0.000000   0.000023   0.000033   0.000035  -0.000003
      1      -0.003134   0.000000   0.000001   0.000003  -0.000001  -0.000000
      2      -0.024311   0.000001   0.000887   0.001769  -0.000453  -0.000081
      3       0.031760  -0.000003  -0.001769  -0.003312   0.000923   0.000166
      4       0.002399   0.000001   0.000453   0.000923   0.000055  -0.000042
      5       0.178348   0.000000   0.000081   0.000166  -0.000042   0.000284
      6      -0.002430   0.000000   0.031708   0.052267   0.008315  -0.004602
      7      -0.014610   0.031693   0.336592   0.333654   0.053080  -0.029378
      8      -0.010053  -0.051767  -0.386198  -0.304949  -0.078955   0.043699
      9       0.017616  -0.008235  -0.061439  -0.078955   0.178796   0.006952
     10       0.222139   0.004558   0.034005   0.043699   0.006952   0.187509
     11      -0.000073   0.000000   0.000000   0.000001   0.000000  -0.000000
     12      -0.002631   0.000000   0.000440   0.000870   0.000364  -0.000079
     13       0.002203  -0.000001  -0.000870  -0.001603  -0.000730   0.000160
     14       0.003817  -0.000000  -0.000364  -0.000730  -0.000163   0.000067
     15       0.005993   0.000000   0.000079   0.000160   0.000067   0.000128
     16      -0.000081   0.000000   0.000391   0.000828   0.000643  -0.000058
     17      -0.002031   0.000908   0.033614   0.039207   0.030449  -0.002724
     18      -0.000041  -0.001746  -0.043544  -0.041936  -0.042772   0.003826
     19       0.003364  -0.001356  -0.033817  -0.042772  -0.020079   0.002972
     20       0.019476   0.000121   0.003025   0.003826   0.002972   0.012873
     21       0.000027   0.000000   0.000000   0.000000   0.000000  -0.000000
     22       0.000548   0.000000   0.000332   0.000681   0.000053  -0.000009
     23      -0.000746  -0.000002  -0.000764  -0.001482  -0.000123   0.000021
     24      -0.000480  -0.000000  -0.000059  -0.000123   0.000097   0.000002
     25       0.027362   0.000000   0.000010   0.000021   0.000002   0.000106
     26       0.000000   0.000000   0.001398   0.003015  -0.001458  -0.000101
     27       0.000000   0.002519   0.064387   0.079591  -0.038503  -0.002662
     28       0.000000  -0.004932  -0.088918  -0.094818   0.058874   0.004070
     29       0.000000   0.002386   0.043015   0.058874  -0.001597  -0.001969
     30       1.000000   0.000165   0.002974   0.004070  -0.001969   0.026748
     31       0.000165   1.000000   0.235038   0.000000  -0.000000   0.000000
     32       0.002974   0.235038   1.000000  -0.000000   0.000000  -0.000000
     33       0.004070   0.000000  -0.000000   1.000000   0.000000  -0.000000
     34      -0.001969  -0.000000   0.000000   0.000000   1.000000  -0.000000
     35       0.026748   0.000000  -0.000000  -0.000000  -0.000000   1.000000
     36       0.000001   0.000000   0.000000   0.000000   0.000000   0.000000
     37       0.000042   0.000000   0.000000   0.000000   0.000000  -0.000000
     38      -0.000069   0.000000  -0.000000  -0.000001  -0.000000   0.000000
     39      -0.000026   0.000000  -0.000000  -0.000000   0.000000   0.000000
     40       0.000539   0.000000   0.000000   0.000000   0.000000   0.000000
     41      -0.000000   0.000000   0.000000   0.000000   0.000000  -0.000000
     42      -0.000017   0.000000   0.000006   0.000013   0.000008  -0.000000
     43       0.000020  -0.000000  -0.000015  -0.000029  -0.000019   0.000001
     44       0.000032  -0.000000  -0.000009  -0.000019  -0.000010   0.000001
     45       0.000124   0.000000   0.000001   0.000001   0.000001   0.000002
     46       0.000000   0.000000   0.000045   0.000064   0.000123  -0.000001
     47       0.000021   0.000006   0.004947   0.004446   0.008499  -0.000098
     48       0.000008  -0.000010  -0.003945  -0.001995  -0.007071   0.000082
     49      -0.000038  -0.000019  -0.007543  -0.007071  -0.011815   0.000157
     50       0.000273   0.000000   0.000087   0.000082   0.000157   0.001702
     51       0.000249   0.001789   0.039115  -0.026616  -0.044323   0.000606
     52       0.000748   0.000000   0.000000   0.000000  -0.000000   0.000000
     53       0.012905   0.000000   0.000063   0.000121  -0.000073   0.000006
     54      -0.016274  -0.000000  -0.000137  -0.000244   0.000160  -0.000012
     55       0.012105   0.000000   0.000083   0.000160  -0.000077   0.000007
     56       0.034709  -0.000000  -0.000006  -0.000012   0.000007   0.000019
     57      -0.000110   0.000000   0.000003   0.000007   0.000004  -0.000002
     58       0.000042   0.000000   0.000001   0.000003   0.000002   0.000000
     59      -0.016297   0.000000   0.000060   0.000096  -0.000073  -0.000021
     60       0.025717   0.000000   0.000085   0.000131  -0.000099   0.000045
     61      -0.000160   0.000000   0.000003   0.000006  -0.000002  -0.000000
     62       0.000001   0.000000   0.021234  -0.027253   0.024619   0.001410
     63       0.000141   0.022671   0.271777  -0.215491   0.194657   0.011149
     64       0.000239   0.028095   0.247936  -0.100153   0.221813   0.012704
     65      -0.000151  -0.025379  -0.223966   0.221813  -0.054968  -0.011476
     66       0.000712  -0.001454  -0.012827   0.012704  -0.011476   0.144743
     67       0.000545   0.000000   0.022315  -0.006951  -0.037511   0.004671
     68       0.010650   0.023624   0.279117  -0.053611  -0.289304   0.036023
     69       0.016671   0.007128   0.061727   0.135512  -0.080255   0.009993
     70       0.003425   0.038463   0.333102  -0.080255  -0.282699   0.053926
     71       0.027825  -0.004789  -0.041476   0.009993   0.053926   0.143669
     72       0.005415   0.000000   0.000995   0.000925  -0.002236   0.000267
     73       0.054641   0.000995   0.044634   0.025864  -0.062485   0.007465
     74       0.053224  -0.000925  -0.025864   0.001696   0.039575  -0.004728
     75       0.050021   0.002236   0.062485   0.039575  -0.077531   0.011422
     76       0.097065  -0.000267  -0.007465  -0.004728   0.011422   0.016712
     77       0.000130   0.002138   0.044673  -0.049478   0.017470   0.025323
     78      -0.000196   0.003388   0.063326  -0.067999   0.022685  -0.034531
     79       0.000051   0.006104   0.100248  -0.044366   0.110815   0.000416
                 36         37         38         39         40         41    
      0       0.000007   0.000527  -0.000398   0.000780  -0.000060   0.033709
      1       0.000000   0.000725  -0.001585  -0.000944  -0.000114   0.000000
      2       0.001749   0.049385  -0.059488  -0.035433  -0.004290   0.000001
      3       0.003403   0.067279  -0.068911  -0.052945  -0.006410   0.000001
      4       0.002027   0.040073  -0.052945  -0.011557  -0.003818   0.000003
      5       0.000245   0.004852  -0.006410  -0.003818   0.019517   0.000000
      6       0.000000   0.000000  -0.000000   0.000000  -0.000000   0.000000
      7       0.000001   0.000289  -0.000555   0.000004  -0.000013   0.000003
      8       0.000004   0.000710  -0.001291   0.000011  -0.000032   0.000008
      9      -0.000000  -0.000006   0.000011   0.000091   0.000000   0.000006
     10       0.000000   0.000016  -0.000032   0.000000   0.000090  -0.000000
     11       0.000000   0.000386  -0.000842   0.000591  -0.000134   0.000000
     12       0.001075   0.036093  -0.042605   0.029898  -0.006794   0.022431
     13       0.002088   0.048047  -0.047455   0.043239  -0.009825   0.022945
     14      -0.001465  -0.033717   0.043239  -0.016181   0.006895   0.030789
     15       0.000333   0.007662  -0.009825   0.006895   0.012595   0.004097
     16       0.000000   0.000000  -0.000000   0.000000  -0.000000   0.000000
     17       0.000009   0.001148  -0.001870   0.000799  -0.000064   0.001172
     18       0.000027   0.002369  -0.003577   0.001687  -0.000135   0.002569
     19      -0.000012  -0.001012   0.001687  -0.000351   0.000058   0.001186
     20       0.000001   0.000081  -0.000135   0.000058   0.000365  -0.000018
     21       0.000003   0.042490  -0.070210   0.007927  -0.001510   0.000000
     22       0.041186   0.391033  -0.334423   0.037757  -0.007195   0.002640
     23       0.069273   0.462588  -0.305497   0.060738  -0.011573   0.000664
     24      -0.007821  -0.052227   0.060738   0.225613   0.001307   0.005790
     25       0.001490   0.009952  -0.011573   0.001307   0.232221  -0.000253
     26       0.000000   0.000000  -0.000001  -0.000000  -0.000000   0.000000
     27       0.000015   0.001660  -0.002698  -0.000991  -0.000033   0.000000
     28       0.000047   0.003408  -0.005145  -0.002088  -0.000069   0.000000
     29       0.000017   0.001252  -0.002088  -0.000228  -0.000026   0.000001
     30       0.000001   0.000042  -0.000069  -0.000026   0.000539  -0.000000
     31       0.000000   0.000000   0.000000   0.000000   0.000000   0.000000
     32       0.000000   0.000000  -0.000000  -0.000000   0.000000   0.000000
     33       0.000000   0.000000  -0.000001  -0.000000   0.000000   0.000000
     34       0.000000   0.000000  -0.000000   0.000000   0.000000   0.000000
     35       0.000000  -0.000000   0.000000   0.000000   0.000000  -0.000000
     36       1.000000   0.236704   0.000000  -0.000000   0.000000   0.000000
     37       0.236704   1.000000   0.000000   0.000000   0.000000   0.000049
     38       0.000000   0.000000   1.000000   0.000000   0.000000  -0.000052
     39      -0.000000   0.000000   0.000000   1.000000   0.000000   0.000141
     40       0.000000   0.000000   0.000000   0.000000   1.000000  -0.000007
     41       0.000000   0.000049  -0.000052   0.000141  -0.000007   1.000000
     42       0.000560   0.018706  -0.009286   0.025275  -0.001306   0.248362
     43       0.000486   0.011594   0.000635   0.016705  -0.000863  -0.000000
     44      -0.001323  -0.031558   0.016705  -0.038696   0.002349   0.000000
     45       0.000068   0.001630  -0.000863   0.002349   0.006651  -0.000000
     46       0.000000   0.000000   0.000000   0.000000   0.000000   0.000000
     47       0.000000   0.000000  -0.000001   0.000001  -0.000000   0.000003
     48       0.000000   0.000001  -0.000003   0.000002  -0.000000   0.000011
     49       0.000000  -0.000001   0.000002  -0.000001   0.000000   0.000000
     50       0.000000   0.000000  -0.000000   0.000000   0.000000  -0.000000
     51       0.000000   0.000000  -0.000000  -0.000000   0.000000   0.000000
     52       0.000000   0.000008  -0.000013  -0.000024   0.000002   0.000000
     53       0.000183   0.008708  -0.006392  -0.011742   0.000961   0.000000
     54       0.000242   0.007984  -0.003140  -0.011301   0.000925   0.000000
     55       0.000444   0.014667  -0.011301  -0.017749   0.001698   0.000000
     56      -0.000036  -0.001200   0.000925   0.001698   0.002873  -0.000000
     57       0.000829   0.017916  -0.004049   0.020640  -0.009046   0.074190
     58       0.000637   0.014640  -0.001939   0.018070   0.005734   0.055309
     59       0.000044   0.002035  -0.001329  -0.002711  -0.000716   0.000000
     60       0.000032   0.001628  -0.001151  -0.002058   0.000890   0.000000
     61       0.002402   0.041402  -0.001515  -0.048769  -0.001624   0.000000
     62       0.000000   0.000000   0.000000   0.000000   0.000000   0.000000
     63       0.000000   0.000000  -0.000000   0.000000   0.000000   0.000000
     64       0.000000   0.000000  -0.000000   0.000000   0.000000   0.000000
     65       0.000000  -0.000000   0.000000   0.000000  -0.000000   0.000000
     66       0.000000  -0.000000   0.000000  -0.000000   0.000000   0.000000
     67       0.000000   0.000000   0.000000   0.000000   0.000000   0.000000
     68       0.000000   0.000000  -0.000000  -0.000000   0.000000   0.000000
     69       0.000000   0.000000  -0.000000  -0.000000   0.000000   0.000000
     70       0.000000   0.000000  -0.000000  -0.000000   0.000000   0.000000
     71       0.000000  -0.000000   0.000000   0.000000   0.000000   0.000000
     72       0.000000   0.000000   0.000000   0.000000   0.000000   0.000000
     73       0.000000   0.000000  -0.000001  -0.000001   0.000000   0.000000
     74       0.000000   0.000001  -0.000003  -0.000002   0.000000   0.000000
     75       0.000000   0.000001  -0.000002  -0.000001   0.000000   0.000000
     76      -0.000000  -0.000000   0.000000   0.000000   0.000000   0.000000
     77       0.000000   0.000000  -0.000000   0.000000   0.000000   0.000000
     78       0.000000   0.000000  -0.000000   0.000000  -0.000000   0.000000
     79       0.000000   0.000000  -0.000000   0.000000   0.000000   0.000000
                 42         43         44         45         46         47    
      0       0.349753  -0.236338   0.278102  -0.038013   0.001689   0.031205
      1       0.000006  -0.000005  -0.000020  -0.000000   0.000000   0.000000
      2       0.001578  -0.000809  -0.003196  -0.000002   0.000000   0.000047
      3       0.000726   0.000140  -0.001511  -0.000001  -0.000000  -0.000064
      4       0.002865  -0.001511  -0.005443  -0.000004   0.000000   0.000103
      5       0.000002  -0.000001  -0.000004   0.000523   0.000000   0.000004
      6       0.000003  -0.000008  -0.000006   0.000000   0.000000   0.000296
      7       0.001643  -0.002526  -0.002051   0.000031   0.001716   0.040735
      8       0.002526  -0.003447  -0.003244   0.000049  -0.000055  -0.000972
      9       0.002051  -0.003244  -0.002087   0.000040   0.003833   0.068068
     10      -0.000031   0.000049   0.000040   0.000547   0.000149   0.002651
     11       0.023726  -0.023514  -0.031552  -0.004198   0.000000   0.000124
     12       0.279897  -0.203229  -0.272708  -0.036286   0.000448   0.020680
     13       0.176494  -0.009903  -0.215799  -0.028714  -0.001030  -0.031559
     14       0.236833  -0.215799  -0.138658  -0.038530   0.000528   0.016177
     15       0.031512  -0.028714  -0.038530   0.145790   0.000139   0.004245
     16       0.001172  -0.002569  -0.001186   0.000018   0.000002   0.040104
     17       0.047179  -0.064900  -0.029971   0.000450   0.039528   0.380785
     18       0.064900  -0.078524  -0.045136   0.000678  -0.038582  -0.264211
     19       0.029971  -0.045136  -0.001630   0.000313   0.054136   0.370720
     20      -0.000450   0.000678   0.000313   0.019210   0.006187   0.042367
     21       0.002640  -0.000664  -0.005790   0.000253   0.000000   0.000000
     22       0.075537  -0.012328  -0.107513   0.004705   0.000008   0.001073
     23       0.012328   0.030178  -0.019534   0.000855  -0.000021  -0.001884
     24       0.107513  -0.019534  -0.137928   0.007455   0.000017   0.001518
     25      -0.004705   0.000855   0.007455   0.032092   0.000000   0.000017
     26       0.000000  -0.000000  -0.000001   0.000000   0.000000   0.000000
     27       0.000385  -0.000446  -0.000704   0.000017   0.000006   0.000856
     28       0.000446  -0.000399  -0.000828   0.000020  -0.000004  -0.000393
     29       0.000704  -0.000828  -0.001184   0.000032   0.000019   0.001920
     30      -0.000017   0.000020   0.000032   0.000124   0.000000   0.000021
     31       0.000000  -0.000000  -0.000000   0.000000   0.000000   0.000006
     32       0.000006  -0.000015  -0.000009   0.000001   0.000045   0.004947
     33       0.000013  -0.000029  -0.000019   0.000001   0.000064   0.004446
     34       0.000008  -0.000019  -0.000010   0.000001   0.000123   0.008499
     35      -0.000000   0.000001   0.000001   0.000002  -0.000001  -0.000098
     36       0.000560   0.000486  -0.001323   0.000068   0.000000   0.000000
     37       0.018706   0.011594  -0.031558   0.001630   0.000000   0.000000
     38      -0.009286   0.000635   0.016705  -0.000863   0.000000  -0.000001
[...]
 8 O  s               0.5       0.0       0.1       0.0       0.0       0.0
 8 O  pz              3.3       0.2       0.7       0.1       0.0       0.1
 8 O  px              0.5       0.0       0.8       0.1       0.0       1.1
 9 C  s               3.2       0.2       0.2       0.0       0.0       0.3
 9 C  pz              6.1       2.0       0.0       0.2       0.0      11.0
 9 C  px             17.1       0.3       9.4       0.9       0.0       0.0
10 O  s               0.2       0.5       0.2       0.2       0.0       0.0
10 O  pz              2.2       0.1       0.6       0.0       0.0       0.1
10 O  px              0.4       2.7       0.4       3.7       0.0       0.3
11 H  s               2.3       4.6      17.0       0.2       0.0       2.2
12 C  s               0.1       0.8       0.1       0.1       0.0       0.1
12 C  pz              0.6       1.3       0.6       3.3       0.0      14.9
12 C  px              0.2      11.4       3.6       0.6       0.0       0.8
13 H  s               0.2       0.3       0.1       0.1       0.0       4.2
14 H  s               0.2       0.3       0.1       0.1       0.0       4.4
15 H  s               0.4       0.8       1.0       0.9       0.0       1.4
16 H  s               0.5       0.8       1.0       1.0       0.0       1.5
17 H  s               0.8       0.1       2.0       3.3       0.0      15.7
18 C  s               0.0       0.1       0.3       0.6       0.0       5.4
18 C  pz              0.9       0.3       0.7       6.9       0.0       2.8
18 C  px              0.2       5.4       0.2       8.4       0.1       0.2
18 C  py              0.0       0.0       0.0       0.0      46.0       0.0
19 C  s               5.2       8.4      11.0       0.0       0.0       2.5
19 C  pz              0.0       1.1       5.8       0.7       0.0       0.1
19 C  px              0.0       2.3       0.1       0.8       0.0       0.4
19 C  py              0.0       0.0       0.0       0.0       0.4       0.0
20 N  s               0.6       0.2       0.1       0.0       0.0       0.1
20 N  pz              0.5       1.2       0.0       1.5       0.0       1.1
20 N  px              0.4       0.3       0.6       2.1       0.0       0.0
21 H  s               0.5       0.6       0.0       4.4      25.3       4.4
22 H  s               0.5       0.6       0.0       4.4      25.7       4.0
23 H  s               0.9       5.1       0.0      10.9       0.0       0.8

                     66        67        68        69        70        71   
                   0.42361   0.43668   0.43961   0.44613   0.45044   0.45388
                   0.00000   0.00000   0.00000   0.00000   0.00000   0.00000
                  --------  --------  --------  --------  --------  --------
 0 H  s               6.6       0.0       0.0       4.5       5.9      12.5
 1 N  s               0.2       0.0       0.0       1.1       0.0       0.0
 1 N  pz              0.0       0.0       0.0       0.0       0.1       0.4
 1 N  px              0.2       0.0       0.0       1.6       1.1       0.0
 1 N  py              0.0       1.7       0.4       0.0       0.0       0.0
 2 C  s               1.1       0.0       0.0       0.1       1.1       0.4
 2 C  pz              0.0       0.0       0.0       1.8       0.5       0.2
 2 C  px              0.5       0.0       0.0       0.7       0.2       0.0
 3 N  s               0.1       0.0       0.0       0.0       0.0       0.3
 3 N  pz              0.4       0.0       0.0       0.1       0.1       0.4
 3 N  px              0.2       0.0       0.0       0.0       0.0       0.0
 3 N  py              0.0       0.2       1.9       0.0       0.0       0.0
 4 C  s               0.2       0.0       0.0       0.2       0.2       0.2
 4 C  pz              1.5       0.0       0.0       0.0       0.1       0.1
 4 C  px              0.9       0.0       0.0       0.5       0.4       0.1
 4 C  py              0.0       0.0       0.1       0.0       0.0       0.0
 5 C  s               0.0       0.0       0.0       1.5       1.1       0.0
 5 C  pz              0.1       0.0       0.0       0.0       0.3       0.6
 5 C  px              2.0       0.0       0.0       1.3       0.4       0.1
 5 C  py              0.0       0.0       0.4       0.0       0.0       0.0
 6 C  s               0.0       0.0       0.0       1.6       0.0       0.1
 6 C  pz              0.1       0.0       0.0       0.6       0.0       0.3
 6 C  px              0.0       0.0       0.0       1.6       0.0       0.4
 6 C  py              0.0       0.3       0.1       0.0       0.0       0.0
 7 N  s               0.0       0.0       0.0       1.2       0.6       0.0
 7 N  pz              0.5       0.0       0.0       0.1       0.8       0.3
 7 N  px              0.0       0.0       0.0       0.6       0.0       0.3
 8 O  s               0.0       0.0       0.0       0.0       0.3       0.1
 8 O  pz              0.1       0.0       0.0       0.5       0.9       0.2
 8 O  px              0.3       0.0       0.0       0.0       0.1       0.0
 9 C  s               0.0       0.0       0.0       0.1       2.0      34.9
 9 C  pz              6.5       0.0       0.0       6.1       1.1       2.0
 9 C  px              1.7       0.0       0.1       1.3       2.3       3.3
 9 C  py              0.0       6.3      39.9       0.0       0.0       0.0
10 O  s               0.1       0.0       0.0       0.1       0.0       0.2
10 O  pz              0.0       0.0       0.0       0.5       0.4       0.2
10 O  px              0.1       0.0       0.0       0.3       0.1       0.1
11 H  s               0.0       0.0       0.0       3.9       3.8       0.0
12 C  s               0.0       0.0       0.0      12.5      21.2       0.8
12 C  pz              1.2       0.0       0.0       4.3       0.1       1.6
12 C  px              0.7       0.1       0.0       1.7       4.8       2.0
12 C  py              0.0      39.7       6.1       0.0       0.0       0.0
13 H  s               1.6       3.6      22.2       1.9       0.1      15.3
14 H  s               1.6       3.5      21.8       2.0       0.1      15.5
15 H  s               0.4      22.6       3.4       4.1      12.3       1.9
16 H  s               0.5      21.8       3.3       4.2      12.6       1.9
17 H  s               1.3       0.0       0.0      12.5       3.2       0.8
18 C  s              27.0       0.0       0.0       3.0       1.5       0.0
18 C  pz              3.5       0.0       0.0       0.1       0.7       0.5
18 C  px              1.4       0.0       0.0       1.1       3.3       0.2
19 C  s               0.6       0.0       0.0       1.9       2.8       0.2
19 C  pz              0.3       0.0       0.0       0.0       0.1       0.1
19 C  px              0.2       0.0       0.0       9.5       4.0       0.0
20 N  s               0.4       0.0       0.0       1.4       0.4       0.0
20 N  pz              0.6       0.0       0.0       2.6       2.7       0.4
20 N  px              0.4       0.0       0.0       0.0       0.0       0.0
21 H  s              12.9       0.0       0.0       1.0       0.0       0.2
22 H  s              12.9       0.0       0.0       1.0       0.0       0.2
23 H  s               9.1       0.0       0.0       3.1       6.3       0.3

                     72        73        74        75        76        77   
                   0.47886   0.50381   0.52522   0.56004   0.58212   0.62560
                   0.00000   0.00000   0.00000   0.00000   0.00000   0.00000
                  --------  --------  --------  --------  --------  --------
 0 H  s               2.3       5.6       2.3       0.8       0.0       0.2
 1 N  s               0.0       0.0       0.8       0.3       0.1       0.2
 1 N  pz              0.3       9.6       8.5       0.5       1.6       1.3
 1 N  px              5.0       2.5       0.3       0.9       0.1       2.9
 2 C  s               8.6       1.0       1.0       1.6       0.8       0.0
 2 C  pz              0.0       1.0       0.1       5.2       0.4       3.7
 2 C  px              0.0       3.5       2.1       0.1       0.0       0.9
 3 N  s               0.0       0.8       0.1       0.0       0.0       0.0
 3 N  pz              0.0       2.0      16.9       0.2       0.7       0.1
 3 N  px              0.4       4.1       3.4       3.5       0.1       0.7
 4 C  s               2.2       0.0       3.5       4.9       0.0       0.8
 4 C  pz              1.6       7.8       5.7       0.5       0.7       0.6
 4 C  px              0.0       1.1       0.1       8.4       0.2       9.5
 5 C  s               1.0       3.6       0.5       0.1       1.4       4.4
 5 C  pz              0.3       1.4       0.0       0.3       4.5      29.4
 5 C  px              1.4       0.7      19.4       1.6       0.1       0.0
 6 C  s               0.7       8.1       3.8       0.7       0.1       0.2
 6 C  pz              0.3       1.5       0.2       5.4       6.2       0.5
 6 C  px              7.0       0.8       0.5       6.0       4.9       0.0
 7 N  s               0.1       0.8       0.3       0.1       0.4       0.5
 7 N  pz              1.5       0.1       0.1       6.8       2.2       2.8
 7 N  px             12.3       0.0       0.1       1.3       7.9       0.4
 8 O  s               0.2       0.0       0.0       0.0       1.2       6.2
 8 O  pz              0.8       0.0       0.1       0.1       3.6      18.3
 8 O  px              0.4       0.0       2.0       0.2       0.0       0.0
 9 C  s               1.4       1.5       0.4       0.9       0.1       0.1
 9 C  pz              0.5       5.4       3.9       0.7       0.0       0.5
 9 C  px              0.4       0.5       2.0       0.0       0.0       0.0
10 O  s               0.4       0.0       0.0       2.3       0.0       1.8
10 O  pz              0.2       0.5       0.3       2.2       0.0       1.6
10 O  px              1.7       0.3       0.0       6.5       0.0       3.7
11 H  s               0.1       2.0       1.1       1.1       8.3       0.6
12 C  s               5.2       0.0       0.8       0.2       0.2       1.1
12 C  pz              0.0       7.1       1.5       0.0       0.2       0.1
12 C  px              0.7       2.7       2.4       0.4       0.4       0.4
13 H  s               0.1       0.2       1.4       0.0       0.0       0.0
14 H  s               0.1       0.2       1.4       0.0       0.0       0.0
15 H  s               0.6       1.4       0.2       0.0       0.0       0.1
16 H  s               0.6       1.4       0.2       0.0       0.0       0.1
17 H  s               2.1       5.8       2.9       0.1       0.3       0.2
18 C  s               1.3       0.4       0.0       0.1       1.8       0.5
18 C  pz              8.5       0.2       0.0       0.2       2.1       0.1
18 C  px              4.0       0.1       0.0       1.7       0.2       0.2
19 C  s               1.4       2.2       0.1       0.5       2.3       0.4
19 C  pz              0.2       0.0       4.9      10.6      21.0       2.7
19 C  px             10.6       4.3       0.5       4.3       5.2       0.1
20 N  s               1.2       0.0       1.2       0.1       6.7       0.4
20 N  pz              0.0       7.2       1.7      16.8       0.5       1.0
20 N  px              0.1       0.3       0.9       0.6      12.4       0.6
21 H  s               0.9       0.0       0.0       0.2       0.0       0.0
22 H  s               0.9       0.0       0.0       0.2       0.0       0.0
23 H  s              10.1       0.6       0.0       1.1       0.7       0.0

                     78        79   
                   0.69607   0.71564
                   0.00000   0.00000
                  --------  --------
 0 H  s               0.0       0.1
 1 N  s               0.2       0.8
 1 N  pz              2.4       3.1
 1 N  px              2.2       1.5
 2 C  s               5.8       0.3
 2 C  pz              1.5      13.9
 2 C  px             28.0       4.4
 3 N  s               0.1       0.5
 3 N  pz              1.6       1.1
 3 N  px              0.0       3.6
 4 C  s               1.8       0.0
 4 C  pz              7.4       1.9
 4 C  px              0.0      23.6
 5 C  s               0.1       0.3
 5 C  pz              0.3       9.3
 5 C  px              1.7       0.2
 6 C  s               5.1       0.1
 6 C  pz             12.4       7.0
 6 C  px             14.8       2.0
 7 N  s               0.5       1.2
 7 N  pz              0.7       3.7
 7 N  px              3.0       0.0
 8 O  s               0.0       1.5
 8 O  pz              0.0       3.8
 8 O  px              0.1       0.0
 9 C  s               0.0       0.6
 9 C  pz              0.0       0.1
 9 C  px              0.0       0.2
10 O  s               0.6       3.2
10 O  pz              0.0       2.2
10 O  px              1.9       5.8
12 C  s               0.1       0.4
12 C  pz              0.2       0.0
12 C  px              0.0       0.4
17 H  s               0.0       0.1
18 C  s               0.3       0.2
18 C  pz              0.2       0.0
18 C  px              0.1       0.2
19 C  pz              0.2       0.2
19 C  px              3.4       0.0
20 N  s               0.2       0.4
20 N  pz              1.8       0.8
20 N  px              0.6       0.8


                      *****************************
                      * MAYER POPULATION ANALYSIS *
                      *****************************

  NA   - Mulliken gross atomic population
  ZA   - Total nuclear charge
  QA   - Mulliken gross atomic charge
  VA   - Mayer's total valence
  BVA  - Mayer's bonded valence
  FA   - Mayer's free valence

  ATOM       NA         ZA         QA         VA         BVA        FA
  0 H      0.8941     1.0000     0.1059     0.9888     0.9888     0.0000
  1 N      7.2212     7.0000    -0.2212     3.3770     3.3770    -0.0000
  2 C      5.9830     6.0000     0.0170     3.8980     3.8980     0.0000
  3 N      7.2302     7.0000    -0.2302     3.3634     3.3634     0.0000
  4 C      5.7992     6.0000     0.2008     3.9345     3.9345     0.0000
  5 C      5.7164     6.0000     0.2836     3.9260     3.9260     0.0000
  6 C      5.8685     6.0000     0.1315     3.9316     3.9316    -0.0000
  7 N      7.1878     7.0000    -0.1878     3.4844     3.4844    -0.0000
  8 O      8.2285     8.0000    -0.2285     2.2783     2.2783    -0.0000
  9 C      6.1358     6.0000    -0.1358     3.9038     3.9038    -0.0000
 10 O      8.2251     8.0000    -0.2251     2.2724     2.2724     0.0000
 11 H      0.8983     1.0000     0.1017     0.9897     0.9897     0.0000
 12 C      6.1281     6.0000    -0.1281     3.8936     3.8936     0.0000
 13 H      0.9075     1.0000     0.0925     0.9914     0.9914    -0.0000
 14 H      0.9074     1.0000     0.0926     0.9914     0.9914     0.0000
 15 H      0.9023     1.0000     0.0977     0.9905     0.9905     0.0000
 16 H      0.9021     1.0000     0.0979     0.9904     0.9904     0.0000
 17 H      0.8904     1.0000     0.1096     0.9880     0.9880     0.0000
 18 C      6.1336     6.0000    -0.1336     3.8786     3.8786    -0.0000
 19 C      5.9227     6.0000     0.0773     3.8965     3.8965    -0.0000
 20 N      7.2477     7.0000    -0.2477     3.0239     3.0239     0.0000
 21 H      0.8987     1.0000     0.1013     0.9897     0.9897     0.0000
 22 H      0.8985     1.0000     0.1015     0.9897     0.9897     0.0000
 23 H      0.8729     1.0000     0.1271     0.9839     0.9839    -0.0000

  Mayer bond orders larger than 0.1
B(  0-H ,  9-C ) :   0.9604 B(  1-N ,  5-C ) :   0.9812 B(  1-N ,  6-C ) :   1.0719 
B(  1-N ,  8-O ) :   0.1652 B(  1-N , 12-C ) :   0.9406 B(  2-C ,  4-C ) :   1.0480 
B(  2-C ,  6-C ) :   1.3984 B(  2-C ,  7-N ) :   1.1003 B(  3-N ,  4-C ) :   0.9696 
B(  3-N ,  5-C ) :   0.9902 B(  3-N ,  8-O ) :   0.1574 B(  3-N ,  9-C ) :   0.9485 
B(  3-N , 10-O ) :   0.1830 B(  4-C , 10-O ) :   1.8105 B(  5-C ,  8-O ) :   1.8420 
B(  6-C , 20-N ) :   1.2373 B(  7-N , 18-C ) :   0.9273 B(  7-N , 19-C ) :   1.2076 
B(  7-N , 20-N ) :   0.1236 B(  9-C , 13-H ) :   0.9655 B(  9-C , 14-H ) :   0.9655 
B( 11-H , 19-C ) :   0.9507 B( 12-C , 15-H ) :   0.9647 B( 12-C , 16-H ) :   0.9648 
B( 12-C , 17-H ) :   0.9616 B( 18-C , 21-H ) :   0.9659 B( 18-C , 22-H ) :   0.9659 
B( 18-C , 23-H ) :   0.9495 B( 19-C , 20-N ) :   1.5250 

-------
TIMINGS
-------

Total SCF time: 0 days 0 hours 0 min 8 sec 

Total time                  ....       8.342 sec
Sum of individual times     ....       7.829 sec  ( 93.9%)

Fock matrix formation       ....       6.591 sec  ( 79.0%)
  XC integration            ....       0.636 sec  (  9.6% of F)
    Basis function eval.    ....       0.252 sec  ( 39.7% of XC)
    Density eval.           ....       0.119 sec  ( 18.7% of XC)
    XC-Functional eval.     ....       0.069 sec  ( 10.9% of XC)
    XC-Potential eval.      ....       0.087 sec  ( 13.7% of XC)
Diagonalization             ....       0.002 sec  (  0.0%)
Density matrix formation    ....       0.041 sec  (  0.5%)
Population analysis         ....       0.023 sec  (  0.3%)
Initial guess               ....       0.003 sec  (  0.0%)
Orbital Transformation      ....       0.000 sec  (  0.0%)
Orbital Orthonormalization  ....       0.001 sec  (  0.0%)
DIIS solution               ....       0.000 sec  (  0.0%)
SOSCF solution              ....       0.010 sec  (  0.1%)
Grid generation             ....       1.158 sec  ( 13.9%)

-------------------------   --------------------
FINAL SINGLE POINT ENERGY      -671.213051408289
-------------------------   --------------------

                                *** OPTIMIZATION RUN DONE ***

                            ***************************************
                            *     ORCA property calculations      *
                            ***************************************

                                    ---------------------
                                    Active property flags
                                    ---------------------
   (+) Dipole Moment


------------------------------------------------------------------------------
                       ORCA ELECTRIC PROPERTIES CALCULATION
------------------------------------------------------------------------------

Dipole Moment Calculation                       ... on
Quadrupole Moment Calculation                   ... off
Polarizability Calculation                      ... off
GBWName                                         ... go.gbw
Electron density file                           ... go.scfp.tmp
The origin for moment calculation is the CENTER OF MASS  = (-0.021656,  0.006489 -0.042887)

-------------
DIPOLE MOMENT
-------------
                                X             Y             Z
Electronic contribution:     -0.75808       0.01117       0.68533
Nuclear contribution   :      0.91137       0.00039      -1.62337
                        -----------------------------------------
Total Dipole Moment    :      0.15329       0.01156      -0.93804
                        -----------------------------------------
Magnitude (a.u.)       :      0.95055
Magnitude (Debye)      :      2.41611



--------------------
Rotational spectrum 
--------------------
 
Rotational constants in cm-1:     0.032941     0.022441     0.013453 
Rotational constants in MHz :   987.559748   672.777733   403.305359 

 Dipole components along the rotational axes: 
x,y,z [a.u.] :    -0.918151    -0.246030    -0.003760 
x,y,z [Debye]:    -2.333755    -0.625359    -0.009558 

 

Timings for individual modules:

Sum of individual times         ...      414.612 sec (=   6.910 min)
GTO integral calculation        ...       35.240 sec (=   0.587 min)   8.5 %
SCF iterations                  ...      264.667 sec (=   4.411 min)  63.8 %
SCF Gradient evaluation         ...      103.719 sec (=   1.729 min)  25.0 %
Geometry relaxation             ...       10.985 sec (=   0.183 min)   2.6 %
                             ****ORCA TERMINATED NORMALLY****
TOTAL RUN TIME: 0 days 0 hours 7 minutes 9 seconds 302 msec
