
                                 *****************
                                 * O   R   C   A *
                                 *****************

           --- An Ab Initio, DFT and Semiempirical electronic structure package ---

                  #######################################################
                  #                        -***-                        #
                  #          Department of theory and spectroscopy      #
                  #               Directorship: Frank Neese             #
                  #        Max Planck Institute fuer Kohlenforschung    #
                  #                Kaiser Wilhelm Platz 1               #
                  #                 D-45470 Muelheim/Ruhr               #
                  #                      Germany                        #
                  #                                                     #
                  #                  All rights reserved                #
                  #                        -***-                        #
                  #######################################################


                         Program Version 4.1.1  - RELEASE  -


 With contributions from (in alphabetic order):
   Daniel Aravena         : Magnetic Properties
   Michael Atanasov       : Ab Initio Ligand Field Theory
   Alexander A. Auer      : GIAO ZORA
   Ute Becker             : Parallelization
   Giovanni Bistoni       : ED, Open-shell LED
   Martin Brehm           : Molecular dynamics
   Dmytro Bykov           : SCF Hessian
   Vijay G. Chilkuri      : MRCI spin determinant printing
   Dipayan Datta          : RHF DLPNO-CCSD density
   Achintya Kumar Dutta   : EOM-CC, STEOM-CC
   Dmitry Ganyushin       : Spin-Orbit,Spin-Spin,Magnetic field MRCI
   Miquel Garcia          : C-PCM Hessian
   Yang Guo               : DLPNO-NEVPT2, CIM, IAO-localization
   Andreas Hansen         : Spin unrestricted coupled pair/coupled cluster methods
   Benjamin Helmich-Paris : CASSCF linear response (MC-RPA)
   Lee Huntington         : MR-EOM, pCC
   Robert Izsak           : Overlap fitted RIJCOSX, COSX-SCS-MP3, EOM
   Christian Kollmar      : KDIIS, OOCD, Brueckner-CCSD(T), CCSD density
   Simone Kossmann        : Meta GGA functionals, TD-DFT gradient, OOMP2, MP2 Hessian
   Martin Krupicka        : AUTO-CI
   Lucas Lang             : DCDCAS
   Dagmar Lenk            : GEPOL surface, SMD
   Dimitrios Liakos       : Extrapolation schemes; parallel MDCI
   Dimitrios Manganas     : ROCIS; embedding schemes
   Dimitrios Pantazis     : SARC Basis sets
   Taras Petrenko         : DFT Hessian,TD-DFT gradient, ASA, ECA, R-Raman, ABS, FL, XAS/XES, NRVS
   Peter Pinski           : DLPNO-MP2, DLPNO-MP2 Gradient
   Christoph Reimann      : Effective Core Potentials
   Marius Retegan         : Local ZFS, SOC
   Christoph Riplinger    : Optimizer, TS searches, QM/MM, DLPNO-CCSD(T), (RO)-DLPNO pert. Triples
   Tobias Risthaus        : Range-separated hybrids, TD-DFT gradient, RPA, STAB
   Michael Roemelt        : Restricted open shell CIS
   Masaaki Saitow         : Open-shell DLPNO
   Barbara Sandhoefer     : DKH picture change effects
   Avijit Sen             : IP-ROCIS
   Kantharuban Sivalingam : CASSCF convergence, NEVPT2, FIC-MRCI
   Bernardo de Souza      : ESD, SOC TD-DFT
   Georgi Stoychev        : AutoAux, RI-MP2 NMR
   Willem Van den Heuvel  : Paramagnetic NMR
   Boris Wezisla          : Elementary symmetry handling
   Frank Wennmohs         : Technical directorship


 We gratefully acknowledge several colleagues who have allowed us to
 interface, adapt or use parts of their codes:
   Stefan Grimme, W. Hujo, H. Kruse,             : VdW corrections, initial TS optimization,
                  C. Bannwarth                     DFT functionals, gCP, sTDA/sTD-DF
   Ed Valeev                                     : LibInt (2-el integral package), F12 methods
   Garnet Chan, S. Sharma, J. Yang, R. Olivares  : DMRG
   Ulf Ekstrom                                   : XCFun DFT Library
   Mihaly Kallay                                 : mrcc  (arbitrary order and MRCC methods)
   Andreas Klamt, Michael Diedenhofen            : otool_cosmo (COSMO solvation model)
   Jiri Pittner, Ondrej Demel                    : Mk-CCSD
   Frank Weinhold                                : gennbo (NPA and NBO analysis)
   Christopher J. Cramer and Donald G. Truhlar   : smd solvation model
   Lars Goerigk                                  : TD-DFT with DH, B97 family of functionals
   V. Asgeirsson, H. Jonsson                     : NEB implementation
   FAccTs GmbH                                   : IRC, NEB, NEB-TS, Multilevel


 Your calculation uses the libint2 library for the computation of 2-el integrals
 For citations please refer to: http://libint.valeyev.net

 This ORCA versions uses:
   CBLAS   interface :  Fast vector & matrix operations
   LAPACKE interface :  Fast linear algebra routines
   SCALAPACK package :  Parallel linear algebra routines


----- Orbital basis set information -----
Your calculation utilizes the basis: cc-pVTZ-PP 
       Ca, Sr, Ba, Ra : Obtained from the Peterson Research Group Website (tyr0.chem.wsu.edu/~kipeters) Feb. 2017
                        H. Li, H. Feng, W. Sun, Y. Zhang, Q. Fan, K. A. Peterson, Y. Xie, H. F. Schaefer III, Mol. Phys. 111, 2292 (2013)
  Cu-Zn, Ag-Cd, Au-Hg : Obtained from the ccRepo (grant-hill.group.shef.ac.uk/ccrepo) Feb. 2017
                        K. A. Peterson, C. Puzzarini, Theor. Chem. Acc. 114, 283 (2005)
  Ga-Kr, In-Xe, Tl-Rn : Obtained from the ccRepo (grant-hill.group.shef.ac.uk/ccrepo) Feb. 2017
                        K. A. Peterson, J. Chem. Phys. 119, 11099 (2003)
                        K. A. Peterson, D. Figgen, E. Goll, H. Stoll, M. Dolg, J. Chem. Phys. 119, 11113 (2003)
                 Y-Pd : Obtained from the ccRepo (grant-hill.group.shef.ac.uk/ccrepo) Feb. 2017
                        K. A. Peterson, D. Figgen, M. Dolg, H. Stoll, J. Chem. Phys. 126, 124101 (2007)
                Hf-Pt : Obtained from the ccRepo (grant-hill.group.shef.ac.uk/ccrepo) Feb. 2017
                        D. Figgen, K. A. Peterson, M. Dolg, H. Stoll, J. Chem. Phys. 130, 164108 (2009)

----- AuxJ basis set information -----
Your calculation utilizes the auxiliary basis: def2/J
   F. Weigend, Phys. Chem. Chem. Phys. 8, 1057 (2006).

cite the ECPs for Br [SK MCDHF RSC], Ba [SK MCDHF RSC], I  [SK MCDHF RSC] as follows:
O: B. Metz and H. Stoll, private communication (KAP)
Tl: B. Metz, M. Schweizer, H. Stoll, M. Dolg, W. Liu, Theor. Chem. Acc. 104, 22 (2000)
Ga-As, In-Sb, Pb-Bi: B. Metz, H. Stoll, M. Dolg, J. Chem. Phys. 113, 2563 (2000)
Se-Kr, Te-Xe, Po-Rn: K.A. Peterson, D. Figgen, E. Goll, H. Stoll, and M. Dolg, J. Chem. Phys., in press (2003)
Cu-Zn, Ag-Cd, Au-Hg: D. Figgen, G. Rauhut, M. Dolg, and H. Stoll, Chem. Phys. 311, 227 (2005)
Y-Pd: K.A. Peterson, D. Figgen, M. Dolg, H. Stoll, J. Chem. Phys. 126, 124101 (2007)
I: K. A. Peterson, B. C. Shepler, D. Figgen, H. Stoll, J. Phys. Chem. A 110, 13877 (2006)
Hf-Pt: D. Figgen, K.A. Peterson, M. Dolg, H. Stoll, J. Chem. Phys. 130, 164108 (2009)
Ca, Sr, Ba, Ra: I.S. Lim, H. Stoll, P. Schwerdtfeger, J. Chem. Phys. 124, 034107 (2006)

cite the ECPs for  as follows:
  M. Kaupp, P. v. R. Schleyer, H. Stoll, H. Preuss, J. Chem. Phys. 94, 1360 (1991).

ECP parameters for Br [SK MCDHF RSC], Ba [SK MCDHF RSC], I  [SK MCDHF RSC] have been obtained from:
cc-pVDZ-PP  EMSL  Basis Set Exchange Library   4/7/16 5:27 AM
Ca, Sr, Ba, Ra: http://www.tc.uni-koeln.de/PP/index.en.html 3/16/17 1:54 PM

ECP parameters for  have been obtained from:
  pseudopotential library of the Stuttgart/Cologne group
  http://www.theochem.uni-stuttgart.de/pseudopotentials/

================================================================================
                                        WARNINGS
                       Please study these warnings very carefully!
================================================================================

INFO   : Checking CIS options ...

WARNING: CIS/ROCIS methods need fully converged wavefunctions
  ===> : Setting SCFConvForced true
         You can overwrite this default with %scf ConvForced false 


INFO   : the flag for use of LIBINT has been found!

================================================================================
                                       INPUT FILE
================================================================================
NAME = orca.inp
|  1> !UKS B3LYP cc-pVTZ-PP RIJCOSX Grid5 FinalGrid6 TightSCF
|  2> 
|  3> %maxcore 7500
|  4> 
|  5> %tddft
|  6>   maxdim 4
|  7>   nroots 9
|  8> end
|  9> 
| 10> %pal nprocs 16 
| 11> end
| 12> % pointcharges "pointcharges.pc"
| 13> 
| 14> * xyz -17 2
| 15> Br          -2.52480         -1.84380          5.01000 
| 16> Br           5.04960          0.00000          0.00000 
| 17> Br          -5.04960          0.00000          0.00000 
| 18> Br           2.52480         -1.84380         -5.01000 
| 19> Br           2.52480          2.49170         -1.35992 
| 20> Br          -2.52480         -1.84380         -5.01000 
| 21> Br          -2.52480          2.49170         -1.35992 
| 22> Ba           0.00000         -1.00887          3.11001 NewGTO "aug-cc-pVTZ-PP" end
| 23> Ba           0.00000          3.32663          0.54008 NewGTO "aug-cc-pVTZ-PP" end
| 24> Br           0.00000          4.33550          3.65009 
| 25> Ba           2.52480         -0.83493         -1.89999 NewGTO "aug-cc-pVTZ-PP" end
| 26> I           2.52480          1.49575          2.62484 
| 27> I          -2.52480          1.49575          2.62484 
| 28> I           0.00000          0.99595          6.03525 
| 29> I           5.04960          0.99595         -3.98475 
| 30> Br           0.00000         -4.33550          3.65009 
| 31> I           0.00000          0.99595         -3.98475 
| 32> I          -5.04960          0.99595         -3.98475 
| 33> Br           2.52480         -1.84380          5.01000 
| 34> I           0.00000          5.33145         -2.38516 
| 35> I           5.04960         -3.33955         -2.38516 
| 36> I           0.00000         -3.33955         -2.38516 
| 37> I          -5.04960         -3.33955         -2.38516 
| 38> Ba          -2.52480         -0.83493         -1.89999 NewGTO "aug-cc-pVTZ-PP" end
| 39> I           2.52480          5.83125          1.02525 
| 40> I          -2.52480          5.83125          1.02525 
| 41> I           2.52480         -2.83975          1.02525 
| 42> I          -2.52480         -2.83975          1.02525 
| 43> Q    -1.000000         -7.57440         -2.83975         -8.99475 
| 44> Q    -1.000000         -2.52480         -2.83975         -8.99475 
| 45> Q    -1.000000          2.52480         -2.83975         -8.99475 
| 46> Q    -1.000000          7.57440         -2.83975         -8.99475 
| 47> Q    -1.000000         -7.57440          5.83125         -8.99475 
| 48> Q    -1.000000         -2.52480          5.83125         -8.99475 
| 49> Q    -1.000000          2.52480          5.83125         -8.99475 
| 50> Q    -1.000000          7.57440          5.83125         -8.99475 
| 51> Q    -1.000000         -7.57440        -11.51075          1.02525 
| 52> Q    -1.000000         -2.52480        -11.51075          1.02525 
| 53> Q    -1.000000          2.52480        -11.51075          1.02525 
| 54> Q    -1.000000          7.57440        -11.51075          1.02525 
| 55> Q    -1.000000        -12.62400         -2.83975          1.02525 
| 56> Q    -1.000000         -7.57440         -2.83975          1.02525 
| 57> Q    -1.000000          7.57440         -2.83975          1.02525 
| 58> Q    -1.000000         12.62400         -2.83975          1.02525 
| 59> Q    -1.000000        -12.62400          5.83125          1.02525 
| 60> Q    -1.000000         -7.57440          5.83125          1.02525 
| 61> Q    -1.000000          7.57440          5.83125          1.02525 
| 62> Q    -1.000000         12.62400          5.83125          1.02525 
| 63> Q    -1.000000         -7.57440         -2.83975         11.04525 
| 64> Q    -1.000000         -2.52480         -2.83975         11.04525 
| 65> Q    -1.000000          2.52480         -2.83975         11.04525 
| 66> Q    -1.000000          7.57440         -2.83975         11.04525 
| 67> Q    -1.000000         -2.52480          5.83125         11.04525 
| 68> Q    -1.000000          2.52480          5.83125         11.04525 
| 69> Q    -1.000000         -5.04960         -3.33955        -12.40516 
| 70> Q    -1.000000          0.00000         -3.33955        -12.40516 
| 71> Q    -1.000000          5.04960         -3.33955        -12.40516 
| 72> Q    -1.000000          0.00000          5.33145        -12.40516 
| 73> Q    -1.000000         -5.04960        -12.01055         -2.38516 
| 74> Q    -1.000000          0.00000        -12.01055         -2.38516 
| 75> Q    -1.000000          5.04960        -12.01055         -2.38516 
| 76> Q    -1.000000        -10.09920         -3.33955         -2.38516 
| 77> Q    -1.000000         10.09920         -3.33955         -2.38516 
| 78> Q    -1.000000        -10.09920          5.33145         -2.38516 
| 79> Q    -1.000000         -5.04960          5.33145         -2.38516 
| 80> Q    -1.000000          5.04960          5.33145         -2.38516 
| 81> Q    -1.000000         10.09920          5.33145         -2.38516 
| 82> Q    -1.000000        -10.09920         -3.33955          7.63484 
| 83> Q    -1.000000         -5.04960         -3.33955          7.63484 
| 84> Q    -1.000000          0.00000         -3.33955          7.63484 
| 85> Q    -1.000000          5.04960         -3.33955          7.63484 
| 86> Q    -1.000000         10.09920         -3.33955          7.63484 
| 87> Q    -1.000000        -10.09920          5.33145          7.63484 
| 88> Q    -1.000000         -5.04960          5.33145          7.63484 
| 89> Q    -1.000000          0.00000          5.33145          7.63484 
| 90> Q    -1.000000          5.04960          5.33145          7.63484 
| 91> Q    -1.000000         10.09920          5.33145          7.63484 
| 92> Q    -1.000000        -10.09920         -7.67505         -3.98475 
| 93> Q    -1.000000         -5.04960         -7.67505         -3.98475 
| 94> Q    -1.000000          0.00000         -7.67505         -3.98475 
| 95> Q    -1.000000          5.04960         -7.67505         -3.98475 
| 96> Q    -1.000000         10.09920         -7.67505         -3.98475 
| 97> Q    -1.000000        -10.09920          0.99595         -3.98475 
| 98> Q    -1.000000         10.09920          0.99595         -3.98475 
| 99> Q    -1.000000         -5.04960          9.66695         -3.98475 
|100> Q    -1.000000          0.00000          9.66695         -3.98475 
|101> Q    -1.000000          5.04960          9.66695         -3.98475 
|102> Q    -1.000000         -5.04960         -7.67505          6.03525 
|103> Q    -1.000000          0.00000         -7.67505          6.03525 
|104> Q    -1.000000          5.04960         -7.67505          6.03525 
|105> Q    -1.000000        -10.09920          0.99595          6.03525 
|106> Q    -1.000000         -5.04960          0.99595          6.03525 
|107> Q    -1.000000          5.04960          0.99595          6.03525 
|108> Q    -1.000000         10.09920          0.99595          6.03525 
|109> Q    -1.000000         -5.04960          9.66695          6.03525 
|110> Q    -1.000000          0.00000          9.66695          6.03525 
|111> Q    -1.000000          5.04960          9.66695          6.03525 
|112> Q    -1.000000         -7.57440         -7.17525         -7.39516 
|113> Q    -1.000000         -2.52480         -7.17525         -7.39516 
|114> Q    -1.000000          2.52480         -7.17525         -7.39516 
|115> Q    -1.000000          7.57440         -7.17525         -7.39516 
|116> Q    -1.000000         -7.57440          1.49575         -7.39516 
|117> Q    -1.000000         -2.52480          1.49575         -7.39516 
|118> Q    -1.000000          2.52480          1.49575         -7.39516 
|119> Q    -1.000000          7.57440          1.49575         -7.39516 
|120> Q    -1.000000         -2.52480         10.16675         -7.39516 
|121> Q    -1.000000          2.52480         10.16675         -7.39516 
|122> Q    -1.000000         -7.57440         -7.17525          2.62484 
|123> Q    -1.000000         -2.52480         -7.17525          2.62484 
|124> Q    -1.000000          2.52480         -7.17525          2.62484 
|125> Q    -1.000000          7.57440         -7.17525          2.62484 
|126> Q    -1.000000        -12.62400          1.49575          2.62484 
|127> Q    -1.000000         -7.57440          1.49575          2.62484 
|128> Q    -1.000000          7.57440          1.49575          2.62484 
|129> Q    -1.000000         12.62400          1.49575          2.62484 
|130> Q    -1.000000         -7.57440         10.16675          2.62484 
|131> Q    -1.000000         -2.52480         10.16675          2.62484 
|132> Q    -1.000000          2.52480         10.16675          2.62484 
|133> Q    -1.000000          7.57440         10.16675          2.62484 
|134> Q    -1.000000         -2.52480          1.49575         12.64484 
|135> Q    -1.000000          2.52480          1.49575         12.64484 
|136> Ba>    2.000000         -2.52480         -0.83493        -11.91999    NewECP "SDD" end
|137> Ba>    2.000000          2.52480         -0.83493        -11.91999    NewECP "SDD" end
|138> Ba>    2.000000         -7.57440         -9.50593         -1.89999    NewECP "SDD" end
|139> Ba>    2.000000         -2.52480         -9.50593         -1.89999    NewECP "SDD" end
|140> Ba>    2.000000          2.52480         -9.50593         -1.89999    NewECP "SDD" end
|141> Ba>    2.000000          7.57440         -9.50593         -1.89999    NewECP "SDD" end
|142> Ba>    2.000000        -12.62400         -0.83493         -1.89999    NewECP "SDD" end
|143> Ba>    2.000000         -7.57440         -0.83493         -1.89999    NewECP "SDD" end
|144> Ba>    2.000000          7.57440         -0.83493         -1.89999    NewECP "SDD" end
|145> Ba>    2.000000         12.62400         -0.83493         -1.89999    NewECP "SDD" end
|146> Ba>    2.000000         -7.57440          7.83607         -1.89999    NewECP "SDD" end
|147> Ba>    2.000000         -2.52480          7.83607         -1.89999    NewECP "SDD" end
|148> Ba>    2.000000          2.52480          7.83607         -1.89999    NewECP "SDD" end
|149> Ba>    2.000000          7.57440          7.83607         -1.89999    NewECP "SDD" end
|150> Ba>    2.000000         -2.52480         -9.50593          8.12001    NewECP "SDD" end
|151> Ba>    2.000000          2.52480         -9.50593          8.12001    NewECP "SDD" end
|152> Ba>    2.000000         -7.57440         -0.83493          8.12001    NewECP "SDD" end
|153> Ba>    2.000000         -2.52480         -0.83493          8.12001    NewECP "SDD" end
|154> Ba>    2.000000          2.52480         -0.83493          8.12001    NewECP "SDD" end
|155> Ba>    2.000000          7.57440         -0.83493          8.12001    NewECP "SDD" end
|156> Ba>    2.000000         -7.57440          7.83607          8.12001    NewECP "SDD" end
|157> Ba>    2.000000         -2.52480          7.83607          8.12001    NewECP "SDD" end
|158> Ba>    2.000000          2.52480          7.83607          8.12001    NewECP "SDD" end
|159> Ba>    2.000000          7.57440          7.83607          8.12001    NewECP "SDD" end
|160> Ba>    2.000000         -5.04960         -5.34437         -9.47992    NewECP "SDD" end
|161> Ba>    2.000000          0.00000         -5.34437         -9.47992    NewECP "SDD" end
|162> Ba>    2.000000          5.04960         -5.34437         -9.47992    NewECP "SDD" end
|163> Ba>    2.000000         -5.04960          3.32663         -9.47992    NewECP "SDD" end
|164> Ba>    2.000000          0.00000          3.32663         -9.47992    NewECP "SDD" end
|165> Ba>    2.000000          5.04960          3.32663         -9.47992    NewECP "SDD" end
|166> Ba>    2.000000        -10.09920         -5.34437          0.54008    NewECP "SDD" end
|167> Ba>    2.000000         -5.04960         -5.34437          0.54008    NewECP "SDD" end
|168> Ba>    2.000000          0.00000         -5.34437          0.54008    NewECP "SDD" end
|169> Ba>    2.000000          5.04960         -5.34437          0.54008    NewECP "SDD" end
|170> Ba>    2.000000         10.09920         -5.34437          0.54008    NewECP "SDD" end
|171> Ba>    2.000000        -10.09920          3.32663          0.54008    NewECP "SDD" end
|172> Ba>    2.000000         -5.04960          3.32663          0.54008    NewECP "SDD" end
|173> Ba>    2.000000          5.04960          3.32663          0.54008    NewECP "SDD" end
|174> Ba>    2.000000         10.09920          3.32663          0.54008    NewECP "SDD" end
|175> Ba>    2.000000         -5.04960         11.99763          0.54008    NewECP "SDD" end
|176> Ba>    2.000000          0.00000         11.99763          0.54008    NewECP "SDD" end
|177> Ba>    2.000000          5.04960         11.99763          0.54008    NewECP "SDD" end
|178> Ba>    2.000000         -5.04960         -5.34437         10.56008    NewECP "SDD" end
|179> Ba>    2.000000          0.00000         -5.34437         10.56008    NewECP "SDD" end
|180> Ba>    2.000000          5.04960         -5.34437         10.56008    NewECP "SDD" end
|181> Ba>    2.000000         -5.04960          3.32663         10.56008    NewECP "SDD" end
|182> Ba>    2.000000          0.00000          3.32663         10.56008    NewECP "SDD" end
|183> Ba>    2.000000          5.04960          3.32663         10.56008    NewECP "SDD" end
|184> Ba>    2.000000         -7.57440         -5.17043         -4.46992    NewECP "SDD" end
|185> Ba>    2.000000         -2.52480         -5.17043         -4.46992    NewECP "SDD" end
|186> Ba>    2.000000          2.52480         -5.17043         -4.46992    NewECP "SDD" end
|187> Ba>    2.000000          7.57440         -5.17043         -4.46992    NewECP "SDD" end
|188> Ba>    2.000000        -12.62400          3.50057         -4.46992    NewECP "SDD" end
|189> Ba>    2.000000         -7.57440          3.50057         -4.46992    NewECP "SDD" end
|190> Ba>    2.000000         -2.52480          3.50057         -4.46992    NewECP "SDD" end
|191> Ba>    2.000000          2.52480          3.50057         -4.46992    NewECP "SDD" end
|192> Ba>    2.000000          7.57440          3.50057         -4.46992    NewECP "SDD" end
|193> Ba>    2.000000         12.62400          3.50057         -4.46992    NewECP "SDD" end
|194> Ba>    2.000000         -2.52480         12.17157         -4.46992    NewECP "SDD" end
|195> Ba>    2.000000          2.52480         12.17157         -4.46992    NewECP "SDD" end
|196> Ba>    2.000000         -7.57440         -5.17043          5.55008    NewECP "SDD" end
|197> Ba>    2.000000         -2.52480         -5.17043          5.55008    NewECP "SDD" end
|198> Ba>    2.000000          2.52480         -5.17043          5.55008    NewECP "SDD" end
|199> Ba>    2.000000          7.57440         -5.17043          5.55008    NewECP "SDD" end
|200> Ba>    2.000000         -7.57440          3.50057          5.55008    NewECP "SDD" end
|201> Ba>    2.000000         -2.52480          3.50057          5.55008    NewECP "SDD" end
|202> Ba>    2.000000          2.52480          3.50057          5.55008    NewECP "SDD" end
|203> Ba>    2.000000          7.57440          3.50057          5.55008    NewECP "SDD" end
|204> Ba>    2.000000         -2.52480         12.17157          5.55008    NewECP "SDD" end
|205> Ba>    2.000000          2.52480         12.17157          5.55008    NewECP "SDD" end
|206> Ba>    2.000000         -5.04960         -9.67987         -6.90999    NewECP "SDD" end
|207> Ba>    2.000000          0.00000         -9.67987         -6.90999    NewECP "SDD" end
|208> Ba>    2.000000          5.04960         -9.67987         -6.90999    NewECP "SDD" end
|209> Ba>    2.000000        -10.09920         -1.00887         -6.90999    NewECP "SDD" end
|210> Ba>    2.000000         -5.04960         -1.00887         -6.90999    NewECP "SDD" end
|211> Ba>    2.000000          0.00000         -1.00887         -6.90999    NewECP "SDD" end
|212> Ba>    2.000000          5.04960         -1.00887         -6.90999    NewECP "SDD" end
|213> Ba>    2.000000         10.09920         -1.00887         -6.90999    NewECP "SDD" end
|214> Ba>    2.000000         -5.04960          7.66213         -6.90999    NewECP "SDD" end
|215> Ba>    2.000000          0.00000          7.66213         -6.90999    NewECP "SDD" end
|216> Ba>    2.000000          5.04960          7.66213         -6.90999    NewECP "SDD" end
|217> Ba>    2.000000         -5.04960         -9.67987          3.11001    NewECP "SDD" end
|218> Ba>    2.000000          0.00000         -9.67987          3.11001    NewECP "SDD" end
|219> Ba>    2.000000          5.04960         -9.67987          3.11001    NewECP "SDD" end
|220> Ba>    2.000000        -10.09920         -1.00887          3.11001    NewECP "SDD" end
|221> Ba>    2.000000         -5.04960         -1.00887          3.11001    NewECP "SDD" end
|222> Ba>    2.000000          5.04960         -1.00887          3.11001    NewECP "SDD" end
|223> Ba>    2.000000         10.09920         -1.00887          3.11001    NewECP "SDD" end
|224> Ba>    2.000000        -10.09920          7.66213          3.11001    NewECP "SDD" end
|225> Ba>    2.000000         -5.04960          7.66213          3.11001    NewECP "SDD" end
|226> Ba>    2.000000          0.00000          7.66213          3.11001    NewECP "SDD" end
|227> Ba>    2.000000          5.04960          7.66213          3.11001    NewECP "SDD" end
|228> Ba>    2.000000         10.09920          7.66213          3.11001    NewECP "SDD" end
|229> Ba>    2.000000          0.00000         -1.00887         13.13001    NewECP "SDD" end
|230> Q    -1.000000         -2.52480         -6.17930        -11.37992 
|231> Q    -1.000000          2.52480         -6.17930        -11.37992 
|232> Q    -1.000000         -7.57440          2.49170        -11.37992 
|233> Q    -1.000000         -2.52480          2.49170        -11.37992 
|234> Q    -1.000000          2.52480          2.49170        -11.37992 
|235> Q    -1.000000          7.57440          2.49170        -11.37992 
|236> Q    -1.000000         -7.57440         -6.17930         -1.35992 
|237> Q    -1.000000         -2.52480         -6.17930         -1.35992 
|238> Q    -1.000000          2.52480         -6.17930         -1.35992 
|239> Q    -1.000000          7.57440         -6.17930         -1.35992 
|240> Q    -1.000000        -12.62400          2.49170         -1.35992 
|241> Q    -1.000000         -7.57440          2.49170         -1.35992 
|242> Q    -1.000000          7.57440          2.49170         -1.35992 
|243> Q    -1.000000         12.62400          2.49170         -1.35992 
|244> Q    -1.000000         -7.57440         11.16270         -1.35992 
|245> Q    -1.000000         -2.52480         11.16270         -1.35992 
|246> Q    -1.000000          2.52480         11.16270         -1.35992 
|247> Q    -1.000000          7.57440         11.16270         -1.35992 
|248> Q    -1.000000         -7.57440         -6.17930          8.66008 
|249> Q    -1.000000         -2.52480         -6.17930          8.66008 
|250> Q    -1.000000          2.52480         -6.17930          8.66008 
|251> Q    -1.000000          7.57440         -6.17930          8.66008 
|252> Q    -1.000000         -7.57440          2.49170          8.66008 
|253> Q    -1.000000         -2.52480          2.49170          8.66008 
|254> Q    -1.000000          2.52480          2.49170          8.66008 
|255> Q    -1.000000          7.57440          2.49170          8.66008 
|256> Q    -1.000000          0.00000         -8.67100        -10.02000 
|257> Q    -1.000000         -5.04960          0.00000        -10.02000 
|258> Q    -1.000000          0.00000          0.00000        -10.02000 
|259> Q    -1.000000          5.04960          0.00000        -10.02000 
|260> Q    -1.000000          0.00000          8.67100        -10.02000 
|261> Q    -1.000000        -10.09920         -8.67100          0.00000 
|262> Q    -1.000000         -5.04960         -8.67100          0.00000 
|263> Q    -1.000000          0.00000         -8.67100          0.00000 
|264> Q    -1.000000          5.04960         -8.67100          0.00000 
|265> Q    -1.000000         10.09920         -8.67100          0.00000 
|266> Q    -1.000000        -10.09920          0.00000          0.00000 
|267> Q    -1.000000         10.09920          0.00000          0.00000 
|268> Q    -1.000000        -10.09920          8.67100          0.00000 
|269> Q    -1.000000         -5.04960          8.67100          0.00000 
|270> Q    -1.000000          0.00000          8.67100          0.00000 
|271> Q    -1.000000          5.04960          8.67100          0.00000 
|272> Q    -1.000000         10.09920          8.67100          0.00000 
|273> Q    -1.000000          0.00000         -8.67100         10.02000 
|274> Q    -1.000000         -5.04960          0.00000         10.02000 
|275> Q    -1.000000          0.00000          0.00000         10.02000 
|276> Q    -1.000000          5.04960          0.00000         10.02000 
|277> Q    -1.000000          0.00000          8.67100         10.02000 
|278> Q    -1.000000         -7.57440        -10.51480         -5.01000 
|279> Q    -1.000000         -2.52480        -10.51480         -5.01000 
|280> Q    -1.000000          2.52480        -10.51480         -5.01000 
|281> Q    -1.000000          7.57440        -10.51480         -5.01000 
|282> Q    -1.000000        -12.62400         -1.84380         -5.01000 
|283> Q    -1.000000         -7.57440         -1.84380         -5.01000 
|284> Q    -1.000000          7.57440         -1.84380         -5.01000 
|285> Q    -1.000000         12.62400         -1.84380         -5.01000 
|286> Q    -1.000000         -7.57440          6.82720         -5.01000 
|287> Q    -1.000000         -2.52480          6.82720         -5.01000 
|288> Q    -1.000000          2.52480          6.82720         -5.01000 
|289> Q    -1.000000          7.57440          6.82720         -5.01000 
|290> Q    -1.000000         -7.57440        -10.51480          5.01000 
|291> Q    -1.000000         -2.52480        -10.51480          5.01000 
|292> Q    -1.000000          2.52480        -10.51480          5.01000 
|293> Q    -1.000000          7.57440        -10.51480          5.01000 
|294> Q    -1.000000        -12.62400         -1.84380          5.01000 
|295> Q    -1.000000         -7.57440         -1.84380          5.01000 
|296> Q    -1.000000          7.57440         -1.84380          5.01000 
|297> Q    -1.000000         12.62400         -1.84380          5.01000 
|298> Q    -1.000000         -7.57440          6.82720          5.01000 
|299> Q    -1.000000         -2.52480          6.82720          5.01000 
|300> Q    -1.000000          2.52480          6.82720          5.01000 
|301> Q    -1.000000          7.57440          6.82720          5.01000 
|302> Q    -1.000000        -10.09920         -4.33550         -6.36992 
|303> Q    -1.000000         -5.04960         -4.33550         -6.36992 
|304> Q    -1.000000          0.00000         -4.33550         -6.36992 
|305> Q    -1.000000          5.04960         -4.33550         -6.36992 
|306> Q    -1.000000         10.09920         -4.33550         -6.36992 
|307> Q    -1.000000        -10.09920          4.33550         -6.36992 
|308> Q    -1.000000         -5.04960          4.33550         -6.36992 
|309> Q    -1.000000          0.00000          4.33550         -6.36992 
|310> Q    -1.000000          5.04960          4.33550         -6.36992 
|311> Q    -1.000000         10.09920          4.33550         -6.36992 
|312> Q    -1.000000          0.00000        -13.00650          3.65009 
|313> Q    -1.000000        -10.09920         -4.33550          3.65009 
|314> Q    -1.000000         -5.04960         -4.33550          3.65009 
|315> Q    -1.000000          5.04960         -4.33550          3.65009 
|316> Q    -1.000000         10.09920         -4.33550          3.65009 
|317> Q    -1.000000        -10.09920          4.33550          3.65009 
|318> Q    -1.000000         -5.04960          4.33550          3.65009 
|319> Q    -1.000000          5.04960          4.33550          3.65009 
|320> Q    -1.000000         10.09920          4.33550          3.65009 
|321> Q    -1.000000          0.00000         13.00650          3.65009 
|322> end
|323> 
|324> 
|325>                          ****END OF INPUT****
================================================================================

                       ****************************
                       * Single Point Calculation *
                       ****************************

---------------------------------
CARTESIAN COORDINATES (ANGSTROEM)
---------------------------------
  Br    -2.524800   -1.843800    5.010000
  Br     5.049600    0.000000    0.000000
  Br    -5.049600    0.000000    0.000000
  Br     2.524800   -1.843800   -5.010000
  Br     2.524800    2.491700   -1.359920
  Br    -2.524800   -1.843800   -5.010000
  Br    -2.524800    2.491700   -1.359920
  Ba     0.000000   -1.008870    3.110010
  Ba     0.000000    3.326630    0.540080
  Br     0.000000    4.335500    3.650090
  Ba     2.524800   -0.834930   -1.899990
  I      2.524800    1.495750    2.624840
  I     -2.524800    1.495750    2.624840
  I      0.000000    0.995950    6.035250
  I      5.049600    0.995950   -3.984750
  Br     0.000000   -4.335500    3.650090
  I      0.000000    0.995950   -3.984750
  I     -5.049600    0.995950   -3.984750
  Br     2.524800   -1.843800    5.010000
  I      0.000000    5.331450   -2.385160
  I      5.049600   -3.339550   -2.385160
  I      0.000000   -3.339550   -2.385160
  I     -5.049600   -3.339550   -2.385160
  Ba    -2.524800   -0.834930   -1.899990
  I      2.524800    5.831250    1.025250
  I     -2.524800    5.831250    1.025250
  I      2.524800   -2.839750    1.025250
  I     -2.524800   -2.839750    1.025250
  Q     -7.574400   -2.839750   -8.994750
  Q     -2.524800   -2.839750   -8.994750
  Q      2.524800   -2.839750   -8.994750
  Q      7.574400   -2.839750   -8.994750
  Q     -7.574400    5.831250   -8.994750
  Q     -2.524800    5.831250   -8.994750
  Q      2.524800    5.831250   -8.994750
  Q      7.574400    5.831250   -8.994750
  Q     -7.574400  -11.510750    1.025250
  Q     -2.524800  -11.510750    1.025250
  Q      2.524800  -11.510750    1.025250
  Q      7.574400  -11.510750    1.025250
  Q    -12.624000   -2.839750    1.025250
  Q     -7.574400   -2.839750    1.025250
  Q      7.574400   -2.839750    1.025250
  Q     12.624000   -2.839750    1.025250
  Q    -12.624000    5.831250    1.025250
  Q     -7.574400    5.831250    1.025250
  Q      7.574400    5.831250    1.025250
  Q     12.624000    5.831250    1.025250
  Q     -7.574400   -2.839750   11.045250
  Q     -2.524800   -2.839750   11.045250
  Q      2.524800   -2.839750   11.045250
  Q      7.574400   -2.839750   11.045250
  Q     -2.524800    5.831250   11.045250
  Q      2.524800    5.831250   11.045250
  Q     -5.049600   -3.339550  -12.405160
  Q      0.000000   -3.339550  -12.405160
  Q      5.049600   -3.339550  -12.405160
  Q      0.000000    5.331450  -12.405160
  Q     -5.049600  -12.010550   -2.385160
  Q      0.000000  -12.010550   -2.385160
  Q      5.049600  -12.010550   -2.385160
  Q    -10.099200   -3.339550   -2.385160
  Q     10.099200   -3.339550   -2.385160
  Q    -10.099200    5.331450   -2.385160
  Q     -5.049600    5.331450   -2.385160
  Q      5.049600    5.331450   -2.385160
  Q     10.099200    5.331450   -2.385160
  Q    -10.099200   -3.339550    7.634840
  Q     -5.049600   -3.339550    7.634840
  Q      0.000000   -3.339550    7.634840
  Q      5.049600   -3.339550    7.634840
  Q     10.099200   -3.339550    7.634840
  Q    -10.099200    5.331450    7.634840
  Q     -5.049600    5.331450    7.634840
  Q      0.000000    5.331450    7.634840
  Q      5.049600    5.331450    7.634840
  Q     10.099200    5.331450    7.634840
  Q    -10.099200   -7.675050   -3.984750
  Q     -5.049600   -7.675050   -3.984750
  Q      0.000000   -7.675050   -3.984750
  Q      5.049600   -7.675050   -3.984750
  Q     10.099200   -7.675050   -3.984750
  Q    -10.099200    0.995950   -3.984750
  Q     10.099200    0.995950   -3.984750
  Q     -5.049600    9.666950   -3.984750
  Q      0.000000    9.666950   -3.984750
  Q      5.049600    9.666950   -3.984750
  Q     -5.049600   -7.675050    6.035250
  Q      0.000000   -7.675050    6.035250
  Q      5.049600   -7.675050    6.035250
  Q    -10.099200    0.995950    6.035250
  Q     -5.049600    0.995950    6.035250
  Q      5.049600    0.995950    6.035250
  Q     10.099200    0.995950    6.035250
  Q     -5.049600    9.666950    6.035250
  Q      0.000000    9.666950    6.035250
  Q      5.049600    9.666950    6.035250
  Q     -7.574400   -7.175250   -7.395160
  Q     -2.524800   -7.175250   -7.395160
  Q      2.524800   -7.175250   -7.395160
  Q      7.574400   -7.175250   -7.395160
  Q     -7.574400    1.495750   -7.395160
  Q     -2.524800    1.495750   -7.395160
  Q      2.524800    1.495750   -7.395160
  Q      7.574400    1.495750   -7.395160
  Q     -2.524800   10.166750   -7.395160
  Q      2.524800   10.166750   -7.395160
  Q     -7.574400   -7.175250    2.624840
  Q     -2.524800   -7.175250    2.624840
  Q      2.524800   -7.175250    2.624840
  Q      7.574400   -7.175250    2.624840
  Q    -12.624000    1.495750    2.624840
  Q     -7.574400    1.495750    2.624840
  Q      7.574400    1.495750    2.624840
  Q     12.624000    1.495750    2.624840
  Q     -7.574400   10.166750    2.624840
  Q     -2.524800   10.166750    2.624840
  Q      2.524800   10.166750    2.624840
  Q      7.574400   10.166750    2.624840
  Q     -2.524800    1.495750   12.644840
  Q      2.524800    1.495750   12.644840
  Ba>   -2.524800   -0.834930  -11.919990
  Ba>    2.524800   -0.834930  -11.919990
  Ba>   -7.574400   -9.505930   -1.899990
  Ba>   -2.524800   -9.505930   -1.899990
  Ba>    2.524800   -9.505930   -1.899990
  Ba>    7.574400   -9.505930   -1.899990
  Ba>  -12.624000   -0.834930   -1.899990
  Ba>   -7.574400   -0.834930   -1.899990
  Ba>    7.574400   -0.834930   -1.899990
  Ba>   12.624000   -0.834930   -1.899990
  Ba>   -7.574400    7.836070   -1.899990
  Ba>   -2.524800    7.836070   -1.899990
  Ba>    2.524800    7.836070   -1.899990
  Ba>    7.574400    7.836070   -1.899990
  Ba>   -2.524800   -9.505930    8.120010
  Ba>    2.524800   -9.505930    8.120010
  Ba>   -7.574400   -0.834930    8.120010
  Ba>   -2.524800   -0.834930    8.120010
  Ba>    2.524800   -0.834930    8.120010
  Ba>    7.574400   -0.834930    8.120010
  Ba>   -7.574400    7.836070    8.120010
  Ba>   -2.524800    7.836070    8.120010
  Ba>    2.524800    7.836070    8.120010
  Ba>    7.574400    7.836070    8.120010
  Ba>   -5.049600   -5.344370   -9.479920
  Ba>    0.000000   -5.344370   -9.479920
  Ba>    5.049600   -5.344370   -9.479920
  Ba>   -5.049600    3.326630   -9.479920
  Ba>    0.000000    3.326630   -9.479920
  Ba>    5.049600    3.326630   -9.479920
  Ba>  -10.099200   -5.344370    0.540080
  Ba>   -5.049600   -5.344370    0.540080
  Ba>    0.000000   -5.344370    0.540080
  Ba>    5.049600   -5.344370    0.540080
  Ba>   10.099200   -5.344370    0.540080
  Ba>  -10.099200    3.326630    0.540080
  Ba>   -5.049600    3.326630    0.540080
  Ba>    5.049600    3.326630    0.540080
  Ba>   10.099200    3.326630    0.540080
  Ba>   -5.049600   11.997630    0.540080
  Ba>    0.000000   11.997630    0.540080
  Ba>    5.049600   11.997630    0.540080
  Ba>   -5.049600   -5.344370   10.560080
  Ba>    0.000000   -5.344370   10.560080
  Ba>    5.049600   -5.344370   10.560080
  Ba>   -5.049600    3.326630   10.560080
  Ba>    0.000000    3.326630   10.560080
  Ba>    5.049600    3.326630   10.560080
  Ba>   -7.574400   -5.170430   -4.469920
  Ba>   -2.524800   -5.170430   -4.469920
  Ba>    2.524800   -5.170430   -4.469920
  Ba>    7.574400   -5.170430   -4.469920
  Ba>  -12.624000    3.500570   -4.469920
  Ba>   -7.574400    3.500570   -4.469920
  Ba>   -2.524800    3.500570   -4.469920
  Ba>    2.524800    3.500570   -4.469920
  Ba>    7.574400    3.500570   -4.469920
  Ba>   12.624000    3.500570   -4.469920
  Ba>   -2.524800   12.171570   -4.469920
  Ba>    2.524800   12.171570   -4.469920
  Ba>   -7.574400   -5.170430    5.550080
  Ba>   -2.524800   -5.170430    5.550080
  Ba>    2.524800   -5.170430    5.550080
  Ba>    7.574400   -5.170430    5.550080
  Ba>   -7.574400    3.500570    5.550080
  Ba>   -2.524800    3.500570    5.550080
  Ba>    2.524800    3.500570    5.550080
  Ba>    7.574400    3.500570    5.550080
  Ba>   -2.524800   12.171570    5.550080
  Ba>    2.524800   12.171570    5.550080
  Ba>   -5.049600   -9.679870   -6.909990
  Ba>    0.000000   -9.679870   -6.909990
  Ba>    5.049600   -9.679870   -6.909990
  Ba>  -10.099200   -1.008870   -6.909990
  Ba>   -5.049600   -1.008870   -6.909990
  Ba>    0.000000   -1.008870   -6.909990
  Ba>    5.049600   -1.008870   -6.909990
  Ba>   10.099200   -1.008870   -6.909990
  Ba>   -5.049600    7.662130   -6.909990
  Ba>    0.000000    7.662130   -6.909990
  Ba>    5.049600    7.662130   -6.909990
  Ba>   -5.049600   -9.679870    3.110010
  Ba>    0.000000   -9.679870    3.110010
  Ba>    5.049600   -9.679870    3.110010
  Ba>  -10.099200   -1.008870    3.110010
  Ba>   -5.049600   -1.008870    3.110010
  Ba>    5.049600   -1.008870    3.110010
  Ba>   10.099200   -1.008870    3.110010
  Ba>  -10.099200    7.662130    3.110010
  Ba>   -5.049600    7.662130    3.110010
  Ba>    0.000000    7.662130    3.110010
  Ba>    5.049600    7.662130    3.110010
  Ba>   10.099200    7.662130    3.110010
  Ba>    0.000000   -1.008870   13.130010
  Q     -2.524800   -6.179300  -11.379920
  Q      2.524800   -6.179300  -11.379920
  Q     -7.574400    2.491700  -11.379920
  Q     -2.524800    2.491700  -11.379920
  Q      2.524800    2.491700  -11.379920
  Q      7.574400    2.491700  -11.379920
  Q     -7.574400   -6.179300   -1.359920
  Q     -2.524800   -6.179300   -1.359920
  Q      2.524800   -6.179300   -1.359920
  Q      7.574400   -6.179300   -1.359920
  Q    -12.624000    2.491700   -1.359920
  Q     -7.574400    2.491700   -1.359920
  Q      7.574400    2.491700   -1.359920
  Q     12.624000    2.491700   -1.359920
  Q     -7.574400   11.162700   -1.359920
  Q     -2.524800   11.162700   -1.359920
  Q      2.524800   11.162700   -1.359920
  Q      7.574400   11.162700   -1.359920
  Q     -7.574400   -6.179300    8.660080
  Q     -2.524800   -6.179300    8.660080
  Q      2.524800   -6.179300    8.660080
  Q      7.574400   -6.179300    8.660080
  Q     -7.574400    2.491700    8.660080
  Q     -2.524800    2.491700    8.660080
  Q      2.524800    2.491700    8.660080
  Q      7.574400    2.491700    8.660080
  Q      0.000000   -8.671000  -10.020000
  Q     -5.049600    0.000000  -10.020000
  Q      0.000000    0.000000  -10.020000
  Q      5.049600    0.000000  -10.020000
  Q      0.000000    8.671000  -10.020000
  Q    -10.099200   -8.671000    0.000000
  Q     -5.049600   -8.671000    0.000000
  Q      0.000000   -8.671000    0.000000
  Q      5.049600   -8.671000    0.000000
  Q     10.099200   -8.671000    0.000000
  Q    -10.099200    0.000000    0.000000
  Q     10.099200    0.000000    0.000000
  Q    -10.099200    8.671000    0.000000
  Q     -5.049600    8.671000    0.000000
  Q      0.000000    8.671000    0.000000
  Q      5.049600    8.671000    0.000000
  Q     10.099200    8.671000    0.000000
  Q      0.000000   -8.671000   10.020000
  Q     -5.049600    0.000000   10.020000
  Q      0.000000    0.000000   10.020000
  Q      5.049600    0.000000   10.020000
  Q      0.000000    8.671000   10.020000
  Q     -7.574400  -10.514800   -5.010000
  Q     -2.524800  -10.514800   -5.010000
  Q      2.524800  -10.514800   -5.010000
  Q      7.574400  -10.514800   -5.010000
  Q    -12.624000   -1.843800   -5.010000
  Q     -7.574400   -1.843800   -5.010000
  Q      7.574400   -1.843800   -5.010000
  Q     12.624000   -1.843800   -5.010000
  Q     -7.574400    6.827200   -5.010000
  Q     -2.524800    6.827200   -5.010000
  Q      2.524800    6.827200   -5.010000
  Q      7.574400    6.827200   -5.010000
  Q     -7.574400  -10.514800    5.010000
  Q     -2.524800  -10.514800    5.010000
  Q      2.524800  -10.514800    5.010000
  Q      7.574400  -10.514800    5.010000
  Q    -12.624000   -1.843800    5.010000
  Q     -7.574400   -1.843800    5.010000
  Q      7.574400   -1.843800    5.010000
  Q     12.624000   -1.843800    5.010000
  Q     -7.574400    6.827200    5.010000
  Q     -2.524800    6.827200    5.010000
  Q      2.524800    6.827200    5.010000
  Q      7.574400    6.827200    5.010000
  Q    -10.099200   -4.335500   -6.369920
  Q     -5.049600   -4.335500   -6.369920
  Q      0.000000   -4.335500   -6.369920
  Q      5.049600   -4.335500   -6.369920
  Q     10.099200   -4.335500   -6.369920
  Q    -10.099200    4.335500   -6.369920
  Q     -5.049600    4.335500   -6.369920
  Q      0.000000    4.335500   -6.369920
  Q      5.049600    4.335500   -6.369920
  Q     10.099200    4.335500   -6.369920
  Q      0.000000  -13.006500    3.650090
  Q    -10.099200   -4.335500    3.650090
  Q     -5.049600   -4.335500    3.650090
  Q      5.049600   -4.335500    3.650090
  Q     10.099200   -4.335500    3.650090
  Q    -10.099200    4.335500    3.650090
  Q     -5.049600    4.335500    3.650090
  Q      5.049600    4.335500    3.650090
  Q     10.099200    4.335500    3.650090
  Q      0.000000   13.006500    3.650090

----------------------------
CARTESIAN COORDINATES (A.U.)
----------------------------
  NO LB      ZA    FRAG     MASS         X           Y           Z
   0 Br   25.0000*   0    79.900   -4.771181   -3.484277    9.467528
   1 Br   25.0000*   0    79.900    9.542361    0.000000    0.000000
   2 Br   25.0000*   0    79.900   -9.542361    0.000000    0.000000
   3 Br   25.0000*   0    79.900    4.771181   -3.484277   -9.467528
   4 Br   25.0000*   0    79.900    4.771181    4.708631   -2.569876
   5 Br   25.0000*   0    79.900   -4.771181   -3.484277   -9.467528
   6 Br   25.0000*   0    79.900   -4.771181    4.708631   -2.569876
   7 Ba   10.0000*   0   137.330    0.000000   -1.906488    5.877067
   8 Ba   10.0000*   0   137.330    0.000000    6.286420    1.020603
   9 Br   25.0000*   0    79.900    0.000000    8.192908    6.897670
  10 Ba   10.0000*   0   137.330    4.771181   -1.577789   -3.590461
  11 I    25.0000*   0   126.900    4.771181    2.826558    4.960229
  12 I    25.0000*   0   126.900   -4.771181    2.826558    4.960229
  13 I    25.0000*   0   126.900    0.000000    1.882073   11.404970
  14 I    25.0000*   0   126.900    9.542361    1.882073   -7.530086
  15 Br   25.0000*   0    79.900    0.000000   -8.192908    6.897670
  16 I    25.0000*   0   126.900    0.000000    1.882073   -7.530086
  17 I    25.0000*   0   126.900   -9.542361    1.882073   -7.530086
  18 Br   25.0000*   0    79.900    4.771181   -3.484277    9.467528
  19 I    25.0000*   0   126.900    0.000000   10.074980   -4.507299
  20 I    25.0000*   0   126.900    9.542361   -6.310835   -4.507299
  21 I    25.0000*   0   126.900    0.000000   -6.310835   -4.507299
  22 I    25.0000*   0   126.900   -9.542361   -6.310835   -4.507299
  23 Ba   10.0000*   0   137.330   -4.771181   -1.577789   -3.590461
  24 I    25.0000*   0   126.900    4.771181   11.019466    1.937442
  25 I    25.0000*   0   126.900   -4.771181   11.019466    1.937442
  26 I    25.0000*   0   126.900    4.771181   -5.366350    1.937442
  27 I    25.0000*   0   126.900   -4.771181   -5.366350    1.937442
  28 Q    -1.0000    0     0.000  -14.313542   -5.366350  -16.997614
  29 Q    -1.0000    0     0.000   -4.771181   -5.366350  -16.997614
  30 Q    -1.0000    0     0.000    4.771181   -5.366350  -16.997614
  31 Q    -1.0000    0     0.000   14.313542   -5.366350  -16.997614
  32 Q    -1.0000    0     0.000  -14.313542   11.019466  -16.997614
  33 Q    -1.0000    0     0.000   -4.771181   11.019466  -16.997614
  34 Q    -1.0000    0     0.000    4.771181   11.019466  -16.997614
  35 Q    -1.0000    0     0.000   14.313542   11.019466  -16.997614
  36 Q    -1.0000    0     0.000  -14.313542  -21.752165    1.937442
  37 Q    -1.0000    0     0.000   -4.771181  -21.752165    1.937442
  38 Q    -1.0000    0     0.000    4.771181  -21.752165    1.937442
  39 Q    -1.0000    0     0.000   14.313542  -21.752165    1.937442
  40 Q    -1.0000    0     0.000  -23.855903   -5.366350    1.937442
  41 Q    -1.0000    0     0.000  -14.313542   -5.366350    1.937442
  42 Q    -1.0000    0     0.000   14.313542   -5.366350    1.937442
  43 Q    -1.0000    0     0.000   23.855903   -5.366350    1.937442
  44 Q    -1.0000    0     0.000  -23.855903   11.019466    1.937442
  45 Q    -1.0000    0     0.000  -14.313542   11.019466    1.937442
  46 Q    -1.0000    0     0.000   14.313542   11.019466    1.937442
  47 Q    -1.0000    0     0.000   23.855903   11.019466    1.937442
  48 Q    -1.0000    0     0.000  -14.313542   -5.366350   20.872498
  49 Q    -1.0000    0     0.000   -4.771181   -5.366350   20.872498
  50 Q    -1.0000    0     0.000    4.771181   -5.366350   20.872498
  51 Q    -1.0000    0     0.000   14.313542   -5.366350   20.872498
  52 Q    -1.0000    0     0.000   -4.771181   11.019466   20.872498
  53 Q    -1.0000    0     0.000    4.771181   11.019466   20.872498
  54 Q    -1.0000    0     0.000   -9.542361   -6.310835  -23.442355
  55 Q    -1.0000    0     0.000    0.000000   -6.310835  -23.442355
  56 Q    -1.0000    0     0.000    9.542361   -6.310835  -23.442355
  57 Q    -1.0000    0     0.000    0.000000   10.074980  -23.442355
  58 Q    -1.0000    0     0.000   -9.542361  -22.696650   -4.507299
  59 Q    -1.0000    0     0.000    0.000000  -22.696650   -4.507299
  60 Q    -1.0000    0     0.000    9.542361  -22.696650   -4.507299
  61 Q    -1.0000    0     0.000  -19.084722   -6.310835   -4.507299
  62 Q    -1.0000    0     0.000   19.084722   -6.310835   -4.507299
  63 Q    -1.0000    0     0.000  -19.084722   10.074980   -4.507299
  64 Q    -1.0000    0     0.000   -9.542361   10.074980   -4.507299
  65 Q    -1.0000    0     0.000    9.542361   10.074980   -4.507299
  66 Q    -1.0000    0     0.000   19.084722   10.074980   -4.507299
  67 Q    -1.0000    0     0.000  -19.084722   -6.310835   14.427757
  68 Q    -1.0000    0     0.000   -9.542361   -6.310835   14.427757
  69 Q    -1.0000    0     0.000    0.000000   -6.310835   14.427757
  70 Q    -1.0000    0     0.000    9.542361   -6.310835   14.427757
  71 Q    -1.0000    0     0.000   19.084722   -6.310835   14.427757
  72 Q    -1.0000    0     0.000  -19.084722   10.074980   14.427757
  73 Q    -1.0000    0     0.000   -9.542361   10.074980   14.427757
  74 Q    -1.0000    0     0.000    0.000000   10.074980   14.427757
  75 Q    -1.0000    0     0.000    9.542361   10.074980   14.427757
  76 Q    -1.0000    0     0.000   19.084722   10.074980   14.427757
  77 Q    -1.0000    0     0.000  -19.084722  -14.503743   -7.530086
  78 Q    -1.0000    0     0.000   -9.542361  -14.503743   -7.530086
  79 Q    -1.0000    0     0.000    0.000000  -14.503743   -7.530086
  80 Q    -1.0000    0     0.000    9.542361  -14.503743   -7.530086
  81 Q    -1.0000    0     0.000   19.084722  -14.503743   -7.530086
  82 Q    -1.0000    0     0.000  -19.084722    1.882073   -7.530086
  83 Q    -1.0000    0     0.000   19.084722    1.882073   -7.530086
  84 Q    -1.0000    0     0.000   -9.542361   18.267888   -7.530086
  85 Q    -1.0000    0     0.000    0.000000   18.267888   -7.530086
  86 Q    -1.0000    0     0.000    9.542361   18.267888   -7.530086
  87 Q    -1.0000    0     0.000   -9.542361  -14.503743   11.404970
  88 Q    -1.0000    0     0.000    0.000000  -14.503743   11.404970
  89 Q    -1.0000    0     0.000    9.542361  -14.503743   11.404970
  90 Q    -1.0000    0     0.000  -19.084722    1.882073   11.404970
  91 Q    -1.0000    0     0.000   -9.542361    1.882073   11.404970
  92 Q    -1.0000    0     0.000    9.542361    1.882073   11.404970
  93 Q    -1.0000    0     0.000   19.084722    1.882073   11.404970
  94 Q    -1.0000    0     0.000   -9.542361   18.267888   11.404970
  95 Q    -1.0000    0     0.000    0.000000   18.267888   11.404970
  96 Q    -1.0000    0     0.000    9.542361   18.267888   11.404970
  97 Q    -1.0000    0     0.000  -14.313542  -13.559257  -13.974827
  98 Q    -1.0000    0     0.000   -4.771181  -13.559257  -13.974827
  99 Q    -1.0000    0     0.000    4.771181  -13.559257  -13.974827
 100 Q    -1.0000    0     0.000   14.313542  -13.559257  -13.974827
 101 Q    -1.0000    0     0.000  -14.313542    2.826558  -13.974827
 102 Q    -1.0000    0     0.000   -4.771181    2.826558  -13.974827
 103 Q    -1.0000    0     0.000    4.771181    2.826558  -13.974827
 104 Q    -1.0000    0     0.000   14.313542    2.826558  -13.974827
 105 Q    -1.0000    0     0.000   -4.771181   19.212373  -13.974827
 106 Q    -1.0000    0     0.000    4.771181   19.212373  -13.974827
 107 Q    -1.0000    0     0.000  -14.313542  -13.559257    4.960229
 108 Q    -1.0000    0     0.000   -4.771181  -13.559257    4.960229
 109 Q    -1.0000    0     0.000    4.771181  -13.559257    4.960229
 110 Q    -1.0000    0     0.000   14.313542  -13.559257    4.960229
 111 Q    -1.0000    0     0.000  -23.855903    2.826558    4.960229
 112 Q    -1.0000    0     0.000  -14.313542    2.826558    4.960229
 113 Q    -1.0000    0     0.000   14.313542    2.826558    4.960229
 114 Q    -1.0000    0     0.000   23.855903    2.826558    4.960229
 115 Q    -1.0000    0     0.000  -14.313542   19.212373    4.960229
 116 Q    -1.0000    0     0.000   -4.771181   19.212373    4.960229
 117 Q    -1.0000    0     0.000    4.771181   19.212373    4.960229
 118 Q    -1.0000    0     0.000   14.313542   19.212373    4.960229
 119 Q    -1.0000    0     0.000   -4.771181    2.826558   23.895285
 120 Q    -1.0000    0     0.000    4.771181    2.826558   23.895285
 121 Ba>   2.0000    0     0.000   -4.771181   -1.577789  -22.525517
 122 Ba>   2.0000    0     0.000    4.771181   -1.577789  -22.525517
 123 Ba>   2.0000    0     0.000  -14.313542  -17.963604   -3.590461
 124 Ba>   2.0000    0     0.000   -4.771181  -17.963604   -3.590461
 125 Ba>   2.0000    0     0.000    4.771181  -17.963604   -3.590461
 126 Ba>   2.0000    0     0.000   14.313542  -17.963604   -3.590461
 127 Ba>   2.0000    0     0.000  -23.855903   -1.577789   -3.590461
 128 Ba>   2.0000    0     0.000  -14.313542   -1.577789   -3.590461
 129 Ba>   2.0000    0     0.000   14.313542   -1.577789   -3.590461
 130 Ba>   2.0000    0     0.000   23.855903   -1.577789   -3.590461
 131 Ba>   2.0000    0     0.000  -14.313542   14.808026   -3.590461
 132 Ba>   2.0000    0     0.000   -4.771181   14.808026   -3.590461
 133 Ba>   2.0000    0     0.000    4.771181   14.808026   -3.590461
 134 Ba>   2.0000    0     0.000   14.313542   14.808026   -3.590461
 135 Ba>   2.0000    0     0.000   -4.771181  -17.963604   15.344595
 136 Ba>   2.0000    0     0.000    4.771181  -17.963604   15.344595
 137 Ba>   2.0000    0     0.000  -14.313542   -1.577789   15.344595
 138 Ba>   2.0000    0     0.000   -4.771181   -1.577789   15.344595
 139 Ba>   2.0000    0     0.000    4.771181   -1.577789   15.344595
 140 Ba>   2.0000    0     0.000   14.313542   -1.577789   15.344595
 141 Ba>   2.0000    0     0.000  -14.313542   14.808026   15.344595
 142 Ba>   2.0000    0     0.000   -4.771181   14.808026   15.344595
 143 Ba>   2.0000    0     0.000    4.771181   14.808026   15.344595
 144 Ba>   2.0000    0     0.000   14.313542   14.808026   15.344595
 145 Ba>   2.0000    0     0.000   -9.542361  -10.099396  -17.914453
 146 Ba>   2.0000    0     0.000    0.000000  -10.099396  -17.914453
 147 Ba>   2.0000    0     0.000    9.542361  -10.099396  -17.914453
 148 Ba>   2.0000    0     0.000   -9.542361    6.286420  -17.914453
 149 Ba>   2.0000    0     0.000    0.000000    6.286420  -17.914453
 150 Ba>   2.0000    0     0.000    9.542361    6.286420  -17.914453
 151 Ba>   2.0000    0     0.000  -19.084722  -10.099396    1.020603
 152 Ba>   2.0000    0     0.000   -9.542361  -10.099396    1.020603
 153 Ba>   2.0000    0     0.000    0.000000  -10.099396    1.020603
 154 Ba>   2.0000    0     0.000    9.542361  -10.099396    1.020603
 155 Ba>   2.0000    0     0.000   19.084722  -10.099396    1.020603
 156 Ba>   2.0000    0     0.000  -19.084722    6.286420    1.020603
 157 Ba>   2.0000    0     0.000   -9.542361    6.286420    1.020603
 158 Ba>   2.0000    0     0.000    9.542361    6.286420    1.020603
 159 Ba>   2.0000    0     0.000   19.084722    6.286420    1.020603
 160 Ba>   2.0000    0     0.000   -9.542361   22.672235    1.020603
 161 Ba>   2.0000    0     0.000    0.000000   22.672235    1.020603
 162 Ba>   2.0000    0     0.000    9.542361   22.672235    1.020603
 163 Ba>   2.0000    0     0.000   -9.542361  -10.099396   19.955659
 164 Ba>   2.0000    0     0.000    0.000000  -10.099396   19.955659
 165 Ba>   2.0000    0     0.000    9.542361  -10.099396   19.955659
 166 Ba>   2.0000    0     0.000   -9.542361    6.286420   19.955659
 167 Ba>   2.0000    0     0.000    0.000000    6.286420   19.955659
 168 Ba>   2.0000    0     0.000    9.542361    6.286420   19.955659
 169 Ba>   2.0000    0     0.000  -14.313542   -9.770697   -8.446925
 170 Ba>   2.0000    0     0.000   -4.771181   -9.770697   -8.446925
 171 Ba>   2.0000    0     0.000    4.771181   -9.770697   -8.446925
 172 Ba>   2.0000    0     0.000   14.313542   -9.770697   -8.446925
 173 Ba>   2.0000    0     0.000  -23.855903    6.615119   -8.446925
 174 Ba>   2.0000    0     0.000  -14.313542    6.615119   -8.446925
 175 Ba>   2.0000    0     0.000   -4.771181    6.615119   -8.446925
 176 Ba>   2.0000    0     0.000    4.771181    6.615119   -8.446925
 177 Ba>   2.0000    0     0.000   14.313542    6.615119   -8.446925
 178 Ba>   2.0000    0     0.000   23.855903    6.615119   -8.446925
 179 Ba>   2.0000    0     0.000   -4.771181   23.000934   -8.446925
 180 Ba>   2.0000    0     0.000    4.771181   23.000934   -8.446925
 181 Ba>   2.0000    0     0.000  -14.313542   -9.770697   10.488131
 182 Ba>   2.0000    0     0.000   -4.771181   -9.770697   10.488131
 183 Ba>   2.0000    0     0.000    4.771181   -9.770697   10.488131
 184 Ba>   2.0000    0     0.000   14.313542   -9.770697   10.488131
 185 Ba>   2.0000    0     0.000  -14.313542    6.615119   10.488131
 186 Ba>   2.0000    0     0.000   -4.771181    6.615119   10.488131
 187 Ba>   2.0000    0     0.000    4.771181    6.615119   10.488131
 188 Ba>   2.0000    0     0.000   14.313542    6.615119   10.488131
 189 Ba>   2.0000    0     0.000   -4.771181   23.000934   10.488131
 190 Ba>   2.0000    0     0.000    4.771181   23.000934   10.488131
 191 Ba>   2.0000    0     0.000   -9.542361  -18.292303  -13.057989
 192 Ba>   2.0000    0     0.000    0.000000  -18.292303  -13.057989
 193 Ba>   2.0000    0     0.000    9.542361  -18.292303  -13.057989
 194 Ba>   2.0000    0     0.000  -19.084722   -1.906488  -13.057989
 195 Ba>   2.0000    0     0.000   -9.542361   -1.906488  -13.057989
 196 Ba>   2.0000    0     0.000    0.000000   -1.906488  -13.057989
 197 Ba>   2.0000    0     0.000    9.542361   -1.906488  -13.057989
 198 Ba>   2.0000    0     0.000   19.084722   -1.906488  -13.057989
 199 Ba>   2.0000    0     0.000   -9.542361   14.479327  -13.057989
 200 Ba>   2.0000    0     0.000    0.000000   14.479327  -13.057989
 201 Ba>   2.0000    0     0.000    9.542361   14.479327  -13.057989
 202 Ba>   2.0000    0     0.000   -9.542361  -18.292303    5.877067
 203 Ba>   2.0000    0     0.000    0.000000  -18.292303    5.877067
 204 Ba>   2.0000    0     0.000    9.542361  -18.292303    5.877067
 205 Ba>   2.0000    0     0.000  -19.084722   -1.906488    5.877067
 206 Ba>   2.0000    0     0.000   -9.542361   -1.906488    5.877067
 207 Ba>   2.0000    0     0.000    9.542361   -1.906488    5.877067
 208 Ba>   2.0000    0     0.000   19.084722   -1.906488    5.877067
 209 Ba>   2.0000    0     0.000  -19.084722   14.479327    5.877067
 210 Ba>   2.0000    0     0.000   -9.542361   14.479327    5.877067
 211 Ba>   2.0000    0     0.000    0.000000   14.479327    5.877067
 212 Ba>   2.0000    0     0.000    9.542361   14.479327    5.877067
 213 Ba>   2.0000    0     0.000   19.084722   14.479327    5.877067
 214 Ba>   2.0000    0     0.000    0.000000   -1.906488   24.812123
 215 Q    -1.0000    0     0.000   -4.771181  -11.677185  -21.504932
 216 Q    -1.0000    0     0.000    4.771181  -11.677185  -21.504932
 217 Q    -1.0000    0     0.000  -14.313542    4.708631  -21.504932
 218 Q    -1.0000    0     0.000   -4.771181    4.708631  -21.504932
 219 Q    -1.0000    0     0.000    4.771181    4.708631  -21.504932
 220 Q    -1.0000    0     0.000   14.313542    4.708631  -21.504932
 221 Q    -1.0000    0     0.000  -14.313542  -11.677185   -2.569876
 222 Q    -1.0000    0     0.000   -4.771181  -11.677185   -2.569876
 223 Q    -1.0000    0     0.000    4.771181  -11.677185   -2.569876
 224 Q    -1.0000    0     0.000   14.313542  -11.677185   -2.569876
 225 Q    -1.0000    0     0.000  -23.855903    4.708631   -2.569876
 226 Q    -1.0000    0     0.000  -14.313542    4.708631   -2.569876
 227 Q    -1.0000    0     0.000   14.313542    4.708631   -2.569876
 228 Q    -1.0000    0     0.000   23.855903    4.708631   -2.569876
 229 Q    -1.0000    0     0.000  -14.313542   21.094446   -2.569876
 230 Q    -1.0000    0     0.000   -4.771181   21.094446   -2.569876
 231 Q    -1.0000    0     0.000    4.771181   21.094446   -2.569876
 232 Q    -1.0000    0     0.000   14.313542   21.094446   -2.569876
 233 Q    -1.0000    0     0.000  -14.313542  -11.677185   16.365179
 234 Q    -1.0000    0     0.000   -4.771181  -11.677185   16.365179
 235 Q    -1.0000    0     0.000    4.771181  -11.677185   16.365179
 236 Q    -1.0000    0     0.000   14.313542  -11.677185   16.365179
 237 Q    -1.0000    0     0.000  -14.313542    4.708631   16.365179
 238 Q    -1.0000    0     0.000   -4.771181    4.708631   16.365179
 239 Q    -1.0000    0     0.000    4.771181    4.708631   16.365179
 240 Q    -1.0000    0     0.000   14.313542    4.708631   16.365179
 241 Q    -1.0000    0     0.000    0.000000  -16.385815  -18.935056
 242 Q    -1.0000    0     0.000   -9.542361    0.000000  -18.935056
 243 Q    -1.0000    0     0.000    0.000000    0.000000  -18.935056
 244 Q    -1.0000    0     0.000    9.542361    0.000000  -18.935056
 245 Q    -1.0000    0     0.000    0.000000   16.385815  -18.935056
 246 Q    -1.0000    0     0.000  -19.084722  -16.385815    0.000000
 247 Q    -1.0000    0     0.000   -9.542361  -16.385815    0.000000
 248 Q    -1.0000    0     0.000    0.000000  -16.385815    0.000000
 249 Q    -1.0000    0     0.000    9.542361  -16.385815    0.000000
 250 Q    -1.0000    0     0.000   19.084722  -16.385815    0.000000
 251 Q    -1.0000    0     0.000  -19.084722    0.000000    0.000000
 252 Q    -1.0000    0     0.000   19.084722    0.000000    0.000000
 253 Q    -1.0000    0     0.000  -19.084722   16.385815    0.000000
 254 Q    -1.0000    0     0.000   -9.542361   16.385815    0.000000
 255 Q    -1.0000    0     0.000    0.000000   16.385815    0.000000
 256 Q    -1.0000    0     0.000    9.542361   16.385815    0.000000
 257 Q    -1.0000    0     0.000   19.084722   16.385815    0.000000
 258 Q    -1.0000    0     0.000    0.000000  -16.385815   18.935056
 259 Q    -1.0000    0     0.000   -9.542361    0.000000   18.935056
 260 Q    -1.0000    0     0.000    0.000000    0.000000   18.935056
 261 Q    -1.0000    0     0.000    9.542361    0.000000   18.935056
 262 Q    -1.0000    0     0.000    0.000000   16.385815   18.935056
 263 Q    -1.0000    0     0.000  -14.313542  -19.870092   -9.467528
 264 Q    -1.0000    0     0.000   -4.771181  -19.870092   -9.467528
 265 Q    -1.0000    0     0.000    4.771181  -19.870092   -9.467528
 266 Q    -1.0000    0     0.000   14.313542  -19.870092   -9.467528
 267 Q    -1.0000    0     0.000  -23.855903   -3.484277   -9.467528
 268 Q    -1.0000    0     0.000  -14.313542   -3.484277   -9.467528
 269 Q    -1.0000    0     0.000   14.313542   -3.484277   -9.467528
 270 Q    -1.0000    0     0.000   23.855903   -3.484277   -9.467528
 271 Q    -1.0000    0     0.000  -14.313542   12.901538   -9.467528
 272 Q    -1.0000    0     0.000   -4.771181   12.901538   -9.467528
 273 Q    -1.0000    0     0.000    4.771181   12.901538   -9.467528
 274 Q    -1.0000    0     0.000   14.313542   12.901538   -9.467528
 275 Q    -1.0000    0     0.000  -14.313542  -19.870092    9.467528
 276 Q    -1.0000    0     0.000   -4.771181  -19.870092    9.467528
 277 Q    -1.0000    0     0.000    4.771181  -19.870092    9.467528
 278 Q    -1.0000    0     0.000   14.313542  -19.870092    9.467528
 279 Q    -1.0000    0     0.000  -23.855903   -3.484277    9.467528
 280 Q    -1.0000    0     0.000  -14.313542   -3.484277    9.467528
 281 Q    -1.0000    0     0.000   14.313542   -3.484277    9.467528
 282 Q    -1.0000    0     0.000   23.855903   -3.484277    9.467528
 283 Q    -1.0000    0     0.000  -14.313542   12.901538    9.467528
 284 Q    -1.0000    0     0.000   -4.771181   12.901538    9.467528
 285 Q    -1.0000    0     0.000    4.771181   12.901538    9.467528
 286 Q    -1.0000    0     0.000   14.313542   12.901538    9.467528
 287 Q    -1.0000    0     0.000  -19.084722   -8.192908  -12.037404
 288 Q    -1.0000    0     0.000   -9.542361   -8.192908  -12.037404
 289 Q    -1.0000    0     0.000    0.000000   -8.192908  -12.037404
 290 Q    -1.0000    0     0.000    9.542361   -8.192908  -12.037404
 291 Q    -1.0000    0     0.000   19.084722   -8.192908  -12.037404
 292 Q    -1.0000    0     0.000  -19.084722    8.192908  -12.037404
 293 Q    -1.0000    0     0.000   -9.542361    8.192908  -12.037404
 294 Q    -1.0000    0     0.000    0.000000    8.192908  -12.037404
 295 Q    -1.0000    0     0.000    9.542361    8.192908  -12.037404
 296 Q    -1.0000    0     0.000   19.084722    8.192908  -12.037404
 297 Q    -1.0000    0     0.000    0.000000  -24.578723    6.897670
 298 Q    -1.0000    0     0.000  -19.084722   -8.192908    6.897670
 299 Q    -1.0000    0     0.000   -9.542361   -8.192908    6.897670
 300 Q    -1.0000    0     0.000    9.542361   -8.192908    6.897670
 301 Q    -1.0000    0     0.000   19.084722   -8.192908    6.897670
 302 Q    -1.0000    0     0.000  -19.084722    8.192908    6.897670
 303 Q    -1.0000    0     0.000   -9.542361    8.192908    6.897670
 304 Q    -1.0000    0     0.000    9.542361    8.192908    6.897670
 305 Q    -1.0000    0     0.000   19.084722    8.192908    6.897670
 306 Q    -1.0000    0     0.000    0.000000   24.578723    6.897670
* core charge reduced due to ECP
> coreless ECP center with (optional) point charge

--------------------------------
INTERNAL COORDINATES (ANGSTROEM)
--------------------------------
 Br     0   0   0     0.000000000000     0.00000000     0.00000000
 Br     1   0   0     9.266673286568     0.00000000     0.00000000
 Br     1   2   0     5.905447779805    80.13482677     0.00000000
 Br     2   1   3     5.905447779805    92.69875253   324.07926652
 Br     2   1   3     3.799021760454    77.33850375    30.27465736
 Br     4   2   1     5.049600000000   115.31138084    21.95442924
 Br     3   1   2     3.799021760454   102.96336229   329.68523456
 Ba     1   2   3     3.268284740502     4.74703636   331.91374085
 Ba     5   2   1     3.268290553929   118.22003915    23.01777158
 Br     9   5   2     3.269553620450   129.18328389    50.23509400
 Ba     2   1   3     3.268284740502    68.40961926   331.72093675
 I      8   1   3     3.589307219130   143.15382288   106.20981721
 I      8   1   3     3.589307219130    73.34780819    40.87034571
 I      8   1  13     3.546312491871    70.42078767    78.04660520
 I     11   2   1     3.751394523641    71.24407966   160.38506946
 Br     8   1  14     3.370185983488    69.79842453   127.76794880
 I     11   2   1     3.751394523641   135.91547365    99.94814124
 I      6   4   2     3.935725176508   129.90437483    49.94380435
 Br     8   1  16     3.268284740502   101.16060391   296.59284739
 I      9   5   2     3.546312491871    70.42067044   173.30039403
 I     11   2   1     3.589307219130    73.34780819   243.04891618
 I     11   2   1     3.589307219130   143.15382288   308.38838768
 I      6   4   2     3.937215783787   129.88623721   310.11877160
 Ba     3   1   2     3.268284740502    94.76976715    26.23520393
 I      9   5   2     3.589307219130    73.34786341    95.25377839
 I      9   5   2     3.589307219130   143.15372639   160.59342942
 I     11   2   1     3.546312491871    70.42078767   321.09552138
 I     24   3   1     3.546312491871    70.42078767    25.36050254
 Q      6   4   2     6.509117384485   140.87520266   173.82820552
 Q      6   4   2     4.107328689672    90.00000000   173.82820552
 Q      4   2   1     4.107328689672   153.99529988   187.76033649
 Q     31   4   2     5.049600000000    90.00000000    12.80695944
 Q     18   6   4     7.406405412209   120.89918871    90.99765721
 Q     33  18   6     5.049600000000    70.06864241   305.32661726
 Q     34  33  18     5.049600000000   179.99999915     0.00000000
 Q     35  34  33     5.049600000000   179.99999852     0.00000000
 Q     23   6   4     9.207280860716   139.45852919   295.29431869
 Q     37  23   6     5.049600000000    74.08459637    46.17065264
 Q     38  37  23     5.049600000000   179.99999915     0.00000000
 Q     39  38  37     5.049600000000   179.99999852     0.00000000
 Q      3   1   2     8.153947080096   100.47129365   163.24922736
 Q      3   1   2     3.935725176508    80.09548404   143.41285344
 Q      2   1   3     3.935725176508   103.88387428   217.21674715
 Q     43   2   1     5.049600000000   129.90437483   207.01500001
 Q     41   3   1     8.671000000000    69.61865148   114.04027503
 Q     45  41   3     5.049600000000    90.00000000   352.29145030
 Q     25   9   5     5.049600000000   134.70225289   326.97479622
 Q     47  25   9     5.049600000000   179.99999915     0.00000000
 Q      1   2   3     7.931873620085   163.08079891   209.87387205
 Q     49   1   2     5.049600000000    50.45965990   338.15519888
 Q     50  49   1     5.049600000000   179.99999915     0.00000000
 Q     51  50  49     5.049600000000   179.99999852     0.00000000
 Q     14   8   1     7.406405412209   157.97949821   300.47228757
 Q     53  14   8     5.049600000000    70.06864241   206.28821561
 Q     29   6   4     4.272623485413    92.75795505   355.40251347
 Q     30   6   4     4.272623485413   143.39292444   352.28417892
 Q     31   4   2     4.272623485413   143.39292444     5.09113836
 Q     34  33  18     4.272623485413   126.22267597   127.67915837
 Q     37  23   6     4.272623485413    69.27491154   349.47613982
 Q     38  37  23     4.272623485413   126.22267597   284.31675046
 Q     39  38  59     4.272623485413   126.22267597     0.00000000
 Q     41   3   1     4.272623485413    52.51538764   230.28366055
 Q     43   2   1     4.272623485413   104.80654135   152.16550913
 Q     45  41   3     4.272623485413    83.28231359    45.77810666
 Q      7   3   1     3.935722571536    98.05624070   224.42442253
 Q      5   2   1     3.935722571536    98.05624070   150.33971434
 Q     47  25   9     4.272623485413   126.22267597    70.69959059
 Q     49   1   2     4.272623485413    77.49904388   172.71190195
 Q      1   2   3     3.937215783787   163.77719429   153.12974945
 Q      1   2   3     3.937215783787    84.94377544   172.71747520
 Q     19   8   1     3.937215783787   168.52273127    23.57823543
 Q     52  51  70     4.272623485413   126.22267597     0.00000000
 Q     45  41   3     7.093031442768    85.95938900   283.19782774
 Q     53  14   8     4.272623485413    65.48936464   355.17681881
 Q     10   9   5     4.107328689672   176.06025390   274.70762250
 Q     54  53  14     4.272623485413   126.22267597    35.64600096
 Q     76  54  53     5.049600000000   126.22267597   179.99999879
 Q     62  41   3     4.621173922079   112.70819367   135.05883401
 Q     23   6   4     4.621173922079    97.21832569   276.07601318
 Q     22  11   2     4.621173922079   134.54361453   286.36718910
 Q     21  11   2     4.621173922079   134.54361453   160.06419500
 Q     63  43   2     4.621173922079   112.70819367   236.81854023
 Q     62  41   3     4.621173922079    99.58706037   290.10140891
 Q     63  43   2     4.621173922079    99.58706037    31.86111514
 Q     65   7   3     4.621173922079   140.09392025   174.01432120
 Q     20   9   5     4.621173922079   144.67650431   235.07710630
 Q     66   5   2     4.621173922079   140.09392025   185.98567880
 Q     69   1   2     4.621173922079    97.21832569   295.91250574
 Q     16   8   1     4.103849708274   153.68650764   304.59834561
 Q     71  19   8     4.621173922079    97.21832569    64.59320837
 Q     68  49   1     4.621173922079    99.58706037   291.00901063
 Q      1   2   3     3.935725176508   121.44166603   295.95769521
 Q     19   8   1     3.935725176508   117.56069038   239.69326175
 Q     72  52  51     4.621173922079    99.58706037    82.89301263
 Q     74  53  14     4.621173922079    99.58706037   240.08441009
 Q     75  10   9     4.621173922079    83.78140541   180.00000000
 Q     76  54  53     4.621173922079    99.58706037    82.89301263
 Q     78  62  41     4.272623485413    99.58706037   176.98426303
 Q     79  23   6     4.272623485413    99.58706037   356.54957690
 Q     80  22  11     4.272623485413    99.58706037   316.08248240
 Q     81  21  11     4.272623485413    99.58706037   117.55635386
 Q     18   6   4     4.272623485413   104.80654135   125.15050912
 Q      6   4   2     4.103849708274    90.00000000   105.33020849
 Q      4   2   1     4.103849708274   103.82754545   118.63918782
 Q     15  11   2     4.272623485413   153.94654089   129.85317647
 Q     85  65   7     4.272623485413   112.70819367    49.68602515
 Q     86  20   9     4.272623485413   112.70819367   140.16484490
 Q     88  69   1     4.272623485413    99.58706037   282.91074064
 Q     16   8   1     3.935725176508   132.10266347    64.75777313
 Q     16   8   1     3.935725176508   132.10266347   184.43891809
 Q     90  71  19     4.272623485413    99.58706037    77.08925936
 Q     91  68  49     4.272623485413   112.70819367   183.01573697
 Q      3   1   2     3.937215783787    80.04886041   216.56537031
 Q      2   1   3     3.937215783787   103.84591823   142.81883241
 Q     94  72  52     4.272623485413   112.70819367   176.98426303
 Q     95  74  53     4.272623485413   112.70819367   183.01573697
 Q     95  74  53     4.272623485413   112.70819367   103.34542677
 Q     96  75  10     4.272623485413   112.70819367   320.16484490
 Q     97  76  54     4.272623485413   112.70819367   176.98426303
 Q     50  49   1     4.621173922079    90.00000000   100.88100274
 Q     51  50  69     4.621173922079    90.00000000   118.58904427
 Ba>   30   6   4     3.546312491871   131.54209028   270.00000000
 Ba>   31   4   2     3.546312491871   131.54209028   282.80695944
 Ba>   37  23   6     3.546312491871    36.17245054   293.21622177
 Ba>   38  37  23     3.546312491871    90.00000000   327.07905117
 Ba>   39  38 125     3.546312491871    90.00000000     0.00000000
 Ba>   40  39 126     3.546312491871    90.00000000     0.00000000
 Ba>   41   3   1     3.546312491871    72.50634197   173.02749421
 Ba>    3   1   2     3.268284740502   138.04845552   138.77823691
 Ba>    2   1   3     3.268284740502   153.49684337   260.81563652
 Ba>   44  43   2     3.546312491871    90.00000000   324.27625219
 Ba>   46  45  41     3.546312491871    90.00000000   124.42488038
 Ba>   26   9   5     3.546312491871   106.43849946    12.47880740
 Ba>   25   9   5     3.546312491871   106.43849946    73.95226423
 Ba>   47  25   9     3.546312491871    90.00000000   113.46189130
 Ba>   88  69   1     3.751394523641   105.39787076    95.45640425
 Ba>   89  16   8     3.751394523641   136.06674531   284.06157898
 Ba>   49   1   2     3.546312491871    45.68406073   121.86594333
 Ba>    1   2   3     3.269553620450   116.92795354   223.88931625
 Ba>   19   8   1     3.269553620450   118.30380624   310.93163603
 Ba>   52  51 140     3.546312491871    90.00000000     0.00000000
 Ba>   73  45  41     3.589307219130   109.09742237   139.88378128
 Ba>   53  14   8     3.546312491871    79.11138825   300.28805753
 Ba>   54  53  14     3.546312491871    90.00000000    78.40830167
 Ba>   77  76  54     3.589307219130    45.29774711   289.30040941
 Ba>   55  29   6     3.546312491871    53.68103903    61.01667942
 Ba>   56  30   6     3.546312491871    53.68103903    67.00213348
 Ba>   57  31   4     3.546312491871    53.68103903    67.00213348
 Ba>   33  18   6     3.589307219130    52.84890164   353.71969917
 Ba>   58  34  33     3.546312491871    53.68103903   237.42208179
 Ba>   35  34 149     3.589307219130   134.70225289     0.00000000
 Ba>   62  41   3     3.546312491871    53.68103903    84.63047808
 Ba>   23   6   4     3.546312491871   139.87902472   352.61924515
 Ba>   16   8   1     3.269553620450    98.75123548   124.59834561
 Ba>   21  11   2     3.546312491871   106.43849946    73.95240151
 Ba>   63  43   2     3.546312491871    53.68103903   186.39018430
 Ba>   64  45  41     3.546312491871    53.68103903   322.47256880
 Ba>    7   3   1     3.268290553929    56.36127283   267.09536875
 Ba>    5   2   1     3.268290553929    56.36127283   107.66876812
 Ba>   67  47  25     3.546312491871    53.68103903   237.42208179
 Ba>  116  95  74     3.751394523641    95.90990395   228.29210193
 Ba>  117  95  74     3.751394523641   153.94654089   221.50326669
 Ba>  118  96  75     3.751394523641   153.94654089   221.50326669
 Ba>   69   1   2     3.546312491871   139.87902472    12.45573771
 Ba>   70   1   2     3.546312491871   139.87902472   192.84197886
 Ba>   71  19   8     3.546312491871   139.87902472   348.04997640
 Ba>   74  53  14     3.546312491871    53.68103903    85.55534092
 Ba>   75  10   9     3.546312491871   131.54209028     0.00000000
 Ba>   76  54  53     3.546312491871    53.68103903   237.42208179
 Ba>   98  78  62     3.546312491871    53.68103903    25.47093083
 Ba>    6   4   2     3.370185983488    90.00000000   259.01671613
 Ba>    4   2   1     3.370185983488    99.91761640   287.21115373
 Ba>  101  81  21     3.546312491871    53.68103903    25.47093083
 Ba>   83  62  41     3.589307219130   134.54361453   316.08248240
 Ba>  102  18   6     3.546312491871    53.68103903   186.39018430
 Ba>    7   3   1     3.269544108419   122.87992283   162.73444124
 Ba>    5   2   1     3.269544108419   122.87992283   212.02969564
 Ba>  105  15  11     3.546312491871    53.68103903   188.92508923
 Ba>   84  63  43     3.589307219130   134.54361453   117.55635386
 Ba>  106  85  65     3.546312491871    53.68103903   230.42835592
 Ba>  107  86  20     3.546312491871    53.68103903   230.42835592
 Ba>  108  88  69     3.546312491871    53.68103903   334.52906917
 Ba>   16   8   1     3.268284740502   110.20157547     0.00000000
 Ba>   16   8   1     3.268284740502   110.20157547   249.19669122
[...]
303 Q      0.0000    -1.0000    -1.0000     0.0000     0.0000     0.0000
304 Q      0.0000    -1.0000    -1.0000     0.0000     0.0000     0.0000
305 Q      0.0000    -1.0000    -1.0000     0.0000     0.0000     0.0000
306 Q      0.0000    -1.0000    -1.0000     0.0000     0.0000     0.0000

  Mayer bond orders larger than 0.1
B(  0-Br,  7-Ba) :  -0.3669 B(  0-Br,  8-Ba) :   0.1176 B(  1-Br, 10-Ba) :  -0.1555 
B(  2-Br, 23-Ba) :  -0.1555 B(  3-Br, 10-Ba) :  -0.2302 B(  4-Br, 10-Ba) :  -0.1130 
B(  5-Br, 23-Ba) :  -0.2303 B(  6-Br, 23-Ba) :  -0.1125 B(  7-Ba,  8-Ba) :   0.2506 
B(  7-Ba, 13-I ) :  -0.2995 B(  7-Ba, 15-Br) :  -0.4522 B(  7-Ba, 16-I ) :   0.1052 
B(  7-Ba, 18-Br) :  -0.3670 B(  7-Ba, 26-I ) :  -0.2272 B(  7-Ba, 27-I ) :  -0.2270 
B(  8-Ba,  9-Br) :  -0.2071 B(  8-Ba, 10-Ba) :   0.1741 B(  8-Ba, 11-I ) :  -0.2200 
B(  8-Ba, 12-I ) :  -0.2198 B(  8-Ba, 18-Br) :   0.1175 B(  8-Ba, 19-I ) :  -0.3159 
B(  8-Ba, 23-Ba) :   0.1730 B(  8-Ba, 24-I ) :  -0.2632 B(  8-Ba, 25-I ) :  -0.2634 
B(  8-Ba, 26-I ) :   0.1708 B(  8-Ba, 27-I ) :   0.1710 B( 10-Ba, 12-I ) :   0.1142 
B( 10-Ba, 14-I ) :  -0.4211 B( 10-Ba, 16-I ) :  -0.1932 B( 10-Ba, 17-I ) :   0.1182 
B( 10-Ba, 20-I ) :  -0.2522 B( 10-Ba, 23-Ba) :   0.1066 B( 11-I , 23-Ba) :   0.1142 
B( 14-I , 23-Ba) :   0.1180 B( 16-I , 23-Ba) :  -0.1930 B( 17-I , 23-Ba) :  -0.4214 
B( 22-I , 23-Ba) :  -0.2522 

-------
TIMINGS
-------

Total SCF time: 0 days 1 hours 31 min 5 sec 

Total time                  ....    5465.302 sec
Sum of individual times     ....    5451.463 sec  ( 99.7%)

Fock matrix formation       ....    5278.378 sec  ( 96.6%)
  Split-RI-J                ....     306.904 sec  (  5.8% of F)
  Chain of spheres X        ....    4565.628 sec  ( 86.5% of F)
  COS-X 1 center corr.      ....       0.000 sec  (  0.0% of F)
  XC integration            ....     385.475 sec  (  7.3% of F)
    Basis function eval.    ....      68.106 sec  ( 17.7% of XC)
    Density eval.           ....     136.073 sec  ( 35.3% of XC)
    XC-Functional eval.     ....       2.971 sec  (  0.8% of XC)
    XC-Potential eval.      ....     146.587 sec  ( 38.0% of XC)
Diagonalization             ....      35.780 sec  (  0.7%)
Density matrix formation    ....       3.846 sec  (  0.1%)
Population analysis         ....       1.527 sec  (  0.0%)
Initial guess               ....      55.663 sec  (  1.0%)
Orbital Transformation      ....       0.000 sec  (  0.0%)
Orbital Orthonormalization  ....       0.000 sec  (  0.0%)
DIIS solution               ....      41.822 sec  (  0.8%)
Grid generation             ....      34.447 sec  (  0.6%)


           ************************************************************
           *        Program running with 16 parallel MPI-processes    *
           *              working on a common directory               *
           ************************************************************
------------------------------------------------------------------------------
                        ORCA TD-DFT/TDA CALCULATION
------------------------------------------------------------------------------

Input orbitals are from        ... orca.gbw
CI-vector output               ... orca.cis
Tamm-Dancoff approximation     ... operative
CIS-Integral strategy          ... AO-integrals
Integral handling              ... AO integral Direct
Max. core memory used          ... 7500 MB
Reference state                ... UHF
Follow IRoot                   ... off
Number of operators            ... 2
Orbital ranges used for CIS calculation:
 Operator 0:  Orbitals  96...328  to 329...1179
 Operator 1:  Orbitals  96...327  to 328...1179
XAS localization array:
 Operator 0:  Orbitals  -1... -1
 Operator 1:  Orbitals  -1... -1
-------------------
XC-INTEGRATION GRID
-------------------

General Integration Accuracy     IntAcc      ...  3.670
Radial Grid Type                 RadialGrid  ... Gauss-Chebyshev
Angular Grid (max. acc.)         AngularGrid ... Lebedev-50
Angular grid pruning method      GridPruning ... 3 (G Style)
Weight generation scheme         WeightScheme... Becke
Basis function cutoff            BFCut       ...    1.0000e-11
Integration weight cutoff        WCut        ...    1.0000e-14
Grids for H and He will be reduced by one unit

# of grid points (after initial pruning)     ... 159548 (   0.0 sec)
# of grid points (after weights+screening)   ...  35968 (   0.2 sec)
nearest neighbour list constructed           ...    0.0 sec
Grid point re-assignment to atoms done       ...    0.0 sec
Grid point division into batches done        ...    0.0 sec
Reduced shell lists constructed in    0.2 sec

Total number of grid points                  ...    35968
Total number of batches                      ...      661
Average number of points per batch           ...       54
Average number of grid points per atom       ...      117
Average number of shells per batch           ...   190.98 (50.26%)
Average number of basis functions per batch  ...   550.79 (46.68%)
Average number of large shells per batch     ...   113.67 (59.52%)
Average number of large basis fcns per batch ...   343.35 (62.34%)
Maximum spatial batch extension              ...   6.41,  5.91,  8.67 au
Average spatial batch extension              ...   0.20,  0.18,  0.19 au

---------------------
COSX-INTEGRATION GRID
---------------------

General Integration Accuracy     IntAcc      ...  2.670
Radial Grid Type                 RadialGrid  ... Gauss-Chebyshev
Angular Grid (max. acc.)         AngularGrid ... Lebedev-50
Angular grid pruning method      GridPruning ... 3 (G Style)
Weight generation scheme         WeightScheme... Becke
Basis function cutoff            BFCut       ...    1.0000e-11
Integration weight cutoff        WCut        ...    1.0000e-14
Grids for H and He will be reduced by one unit

# of grid points (after initial pruning)     ... 102374 (   0.0 sec)
# of grid points (after weights+screening)   ...  22541 (   0.1 sec)
nearest neighbour list constructed           ...    0.0 sec
Grid point re-assignment to atoms done       ...    0.0 sec
Grid point division into batches done        ...    0.0 sec
Reduced shell lists constructed in    0.1 sec

Total number of grid points                  ...    22541
Total number of batches                      ...      447
Average number of points per batch           ...       50
Average number of grid points per atom       ...       73
Average number of shells per batch           ...   198.34 (52.20%)
Average number of basis functions per batch  ...   573.24 (48.58%)
Average number of large shells per batch     ...   117.86 (59.42%)
Average number of large basis fcns per batch ...   357.52 (62.37%)
Maximum spatial batch extension              ...   5.67,  6.25,  5.80 au
Average spatial batch extension              ...   0.22,  0.23,  0.23 au


---------------
TD-DFT XC SETUP
---------------

DFT calculation                         ... on
Name of the grid file                   ... orca.grid_cis.tmp
Exchange functional (SCF)               ... B88
Exchange functional (TD-DFT)            ... B88
   X-Alpha parameter    XAlpha (SCF)    ...  0.666667
   X-Alpha parameter    XAlpha (TD-DFT) ...  0.666667
   Becke's b parameter  XBeta (SCF)     ...  0.004200
   Becke's b parameter  XBeta (TD-DFT)  ...  0.004200
Correlation functional (SCF)            ... LYP
Correlation functional (TD-DFT)         ... LYP
 LDA part of GGA corr.  LDAOpt (SCF)    ... VWN-5
 LDA part of GGA corr.  LDAOpt (TD-DFT) ... VWN-5
Hybrid DFT                              ... on
   Exchange mixing (SCF)                ...  0.200
   Exchange mixing (TD-DFT)             ...  0.200
   GGA exch. scaling(SCF)               ...  0.720
   GGA exch. scaling (TD-DFT)           ...  0.720
   GGA corr. scaling (SCF)              ...  0.810
   GGA corr. scaling (TD-DFT)           ...  0.810

Building densities             ... done
Calculating rho(r) on the grid ... done
Building xc-kernel on the grid ... done
                    *** TD-DFT CALCULATION INITIALIZED ***


------------------------
DAVIDSON-DIAGONALIZATION
------------------------

Dimension of the eigenvalue problem            ... 395947
Number of roots to be determined               ...      9
Maximum size of the expansion space            ...     36
Maximum number of iterations                   ...    100
Convergence tolerance for the residual         ...    2.500e-07
Convergence tolerance for the energies         ...    2.500e-07
Orthogonality tolerance                        ...    1.000e-14
Level Shift                                    ...    0.000e+00
Constructing the preconditioner                ... o.k.
Building the initial guess                     ... o.k.
Number of trial vectors determined             ...     36


                       ****Iteration    0****

   Memory handling for direct AO based CIS:
   Memory per vector needed      ...    82 MB
   Memory needed                 ...  2237 MB
   Memory available              ...  7500 MB
   Number of vectors per batch   ...    90
   Number of batches             ...     1
   Time for densities:    30.885
   Time for RI-J (Direct):   103.077
   Time for K (COSX):    92.440
   Time for XC-Integration:    24.784
   Time for Sigma-Completion:     9.852
   Size of expansion space: 27
   Lowest Energy          :     0.066894841773
   Maximum Energy change  :     0.086026612588 (vector 8)
   Maximum residual norm  :     0.003590726724

                       ****Iteration    1****
   Time for densities:    10.354
   Time for RI-J (Direct):    34.819
   Time for K (COSX):    70.586
   Time for XC-Integration:     9.389
   Time for Sigma-Completion:     3.288
   Size of expansion space: 36
   Lowest Energy          :     0.061152167876
   Maximum Energy change  :     0.005742673897 (vector 0)
   Maximum residual norm  :     0.000268521837
   Rebuilding the expansion space

                       ****Iteration    2****
   Time for densities:    20.637
   Time for RI-J (Direct):    68.653
   Time for K (COSX):    82.060
   Time for XC-Integration:    18.045
   Time for Sigma-Completion:     6.463
   Size of expansion space: 18
   Lowest Energy          :     0.060795050918
   Maximum Energy change  :     0.000357116959 (vector 0)
   Maximum residual norm  :     0.000025418171

                       ****Iteration    3****
   Time for densities:    10.349
   Time for RI-J (Direct):    34.767
   Time for K (COSX):    69.895
   Time for XC-Integration:     9.387
   Time for Sigma-Completion:     3.232
   Size of expansion space: 27
   Lowest Energy          :     0.060757103460
   Maximum Energy change  :     0.000042306313 (vector 3)
   Maximum residual norm  :     0.000001664590

                       ****Iteration    4****
   Time for densities:    10.354
   Time for RI-J (Direct):    34.791
   Time for K (COSX):    69.857
   Time for XC-Integration:     9.286
   Time for Sigma-Completion:     3.226
   Size of expansion space: 36
   Lowest Energy          :     0.060753380431
   Maximum Energy change  :     0.000004827464 (vector 3)
   Maximum residual norm  :     0.000000203976

      *** CONVERGENCE OF RESIDUAL NORM REACHED ***

Storing the converged CI vectors               ... orca.cis2

                 *** DAVIDSON DONE ***

Total time for solving the CIS problem:   978.522sec

-------------------------
TD-DFT/TDA EXCITED STATES
-------------------------

the weight of the individual excitations are printed if larger than 1.0e-02

STATE  1:  E=   0.060753 au      1.653 eV    13333.8 cm**-1
   328a -> 329a  :     0.964957 (c= -0.98232241)

STATE  2:  E=   0.067346 au      1.833 eV    14780.8 cm**-1
   328a -> 330a  :     0.865990 (c=  0.93058568)
   328a -> 331a  :     0.025049 (c= -0.15826919)
   328a -> 333a  :     0.079672 (c=  0.28226244)
   328a -> 335a  :     0.010716 (c=  0.10351797)

STATE  3:  E=   0.072598 au      1.975 eV    15933.4 cm**-1
   328a -> 330a  :     0.063416 (c=  0.25182443)
   328a -> 331a  :     0.776199 (c=  0.88102156)
   328a -> 333a  :     0.122020 (c= -0.34931344)

STATE  4:  E=   0.074312 au      2.022 eV    16309.6 cm**-1
   328a -> 332a  :     0.935744 (c=  0.96733885)
   328a -> 337a  :     0.013555 (c= -0.11642701)
   328a -> 342a  :     0.011674 (c= -0.10804781)

STATE  5:  E=   0.075881 au      2.065 eV    16653.9 cm**-1
   328a -> 330a  :     0.049166 (c=  0.22173401)
   328a -> 331a  :     0.163892 (c= -0.40483607)
   328a -> 333a  :     0.745103 (c= -0.86319327)
   328a -> 335a  :     0.023190 (c= -0.15228425)

STATE  6:  E=   0.081682 au      2.223 eV    17927.0 cm**-1
   328a -> 333a  :     0.027575 (c=  0.16605700)
   328a -> 334a  :     0.024631 (c=  0.15694226)
   328a -> 335a  :     0.930891 (c= -0.96482708)

STATE  7:  E=   0.082001 au      2.231 eV    17997.1 cm**-1
   328a -> 333a  :     0.011334 (c=  0.10645901)
   328a -> 334a  :     0.951742 (c= -0.97557279)
   328a -> 335a  :     0.019244 (c= -0.13872431)

STATE  8:  E=   0.083756 au      2.279 eV    18382.3 cm**-1
   328a -> 336a  :     0.916206 (c=  0.95718676)
   328a -> 337a  :     0.035949 (c= -0.18960314)
   328a -> 339a  :     0.022129 (c= -0.14875819)

STATE  9:  E=   0.085419 au      2.324 eV    18747.4 cm**-1
   328a -> 332a  :     0.019229 (c= -0.13866932)
   328a -> 336a  :     0.031452 (c= -0.17734728)
   328a -> 337a  :     0.929882 (c= -0.96430365)


-----------------------------
TD-DFT/TDA-EXCITATION SPECTRA
-----------------------------

Center of mass = (  0.0000,  0.5730, -0.2599)
Calculating the Dipole integrals                  ... done
Transforming integrals                            ... done
Calculating the Linear Momentum integrals         ... done
Transforming integrals                            ... done
Calculating angular momentum integrals            ... done
Transforming integrals                            ... done

-----------------------------------------------------------------------------
         ABSORPTION SPECTRUM VIA TRANSITION ELECTRIC DIPOLE MOMENTS
-----------------------------------------------------------------------------
State   Energy    Wavelength  fosc         T2        TX        TY        TZ  
        (cm-1)      (nm)                 (au**2)    (au)      (au)      (au) 
-----------------------------------------------------------------------------
   1   13333.8    750.0   0.151048483   3.72938  -0.00002   1.09931   1.58774
   2   14780.8    676.6   0.026628212   0.59309  -0.00001  -0.57015   0.51770
   3   15933.4    627.6   0.077992370   1.61146   0.00001  -1.10019   0.63328
   4   16309.6    613.1   0.112373943   2.26828  -1.50608   0.00000   0.00001
   5   16653.9    600.5   0.018453865   0.36479   0.00001   0.43103  -0.42309
   6   17927.0    557.8   0.002064337   0.03791  -0.00001  -0.18737  -0.05294
   7   17997.1    555.6   0.008971009   0.16410  -0.00001  -0.30629  -0.26512
   8   18382.3    544.0   0.003389517   0.06070  -0.24638  -0.00004  -0.00001
   9   18747.4    533.4   0.001687284   0.02963   0.17213   0.00001   0.00001

-----------------------------------------------------------------------------
         ABSORPTION SPECTRUM VIA TRANSITION VELOCITY DIPOLE MOMENTS
-----------------------------------------------------------------------------
State   Energy    Wavelength   fosc        P2         PX        PY        PZ  
        (cm-1)      (nm)                 (au**2)     (au)      (au)      (au) 
-----------------------------------------------------------------------------
   1   13333.8    750.0   0.001797311   0.00016  -0.00000   0.01098   0.00657
   2   14780.8    676.6   0.000540470   0.00005   0.00000  -0.00594   0.00439
   3   15933.4    627.6   0.000598525   0.00007  -0.00000  -0.00785  -0.00190
   4   16309.6    613.1   0.001001621   0.00011   0.01057  -0.00000  -0.00000
   5   16653.9    600.5   0.000595528   0.00007  -0.00000  -0.00065   0.00821
   6   17927.0    557.8   0.000096399   0.00001   0.00000  -0.00224  -0.00261
   7   17997.1    555.6   0.000170422   0.00002  -0.00000   0.00423   0.00174
   8   18382.3    544.0   0.000013985   0.00000   0.00133  -0.00000  -0.00000
   9   18747.4    533.4   0.000045673   0.00001   0.00242  -0.00000  -0.00000

-------------------------------------------------------------------
                             CD SPECTRUM
-------------------------------------------------------------------
State  Energy     Wavelength     R         MX        MY        MZ   
       (cm-1)       (nm)     (1e40*cgs)   (au)      (au)      (au)  
-------------------------------------------------------------------
   1   13333.8    750.0      0.00081  -0.05194   0.00000  -0.00000
   2   14780.8    676.6      0.00177  -0.04087  -0.00000   0.00000
   3   15933.4    627.6      0.00219  -0.00103  -0.00000   0.00000
   4   16309.6    613.1      0.00039  -0.00000  -0.05610  -0.05685
   5   16653.9    600.5     -0.00014   0.02424  -0.00000  -0.00000
   6   17927.0    557.8      0.00096   0.06272  -0.00001  -0.00000
   7   17997.1    555.6     -0.00120  -0.05329   0.00001   0.00000
   8   18382.3    544.0      0.00286  -0.00001  -0.06465  -0.09598
   9   18747.4    533.4      0.00026  -0.00000  -0.00024   0.10415

Total run time:      994.193 sec

           *** ORCA-CIS/TD-DFT FINISHED WITHOUT ERROR ***

-----------------------
CIS/TD-DFT TOTAL ENERGY
-----------------------

    E(SCF)  =  -8499.522255191 Eh
    DE(CIS) =      0.060753380 Eh (Root  1)
    ----------------------------- ---------
    E(tot)  =  -8499.461501810 Eh


-------------------------   --------------------
FINAL SINGLE POINT ENERGY     -8499.461501810289
-------------------------   --------------------


                            ***************************************
                            *     ORCA property calculations      *
                            ***************************************

                                    ---------------------
                                    Active property flags
                                    ---------------------
   (+) Dipole Moment


------------------------------------------------------------------------------
                       ORCA ELECTRIC PROPERTIES CALCULATION
------------------------------------------------------------------------------

Dipole Moment Calculation                       ... on
Quadrupole Moment Calculation                   ... off
Polarizability Calculation                      ... off
GBWName                                         ... orca.gbw
Electron density file                           ... orca.scfp.tmp
The origin for moment calculation is the CENTER OF MASS  = ( 0.000000,  0.572964 -0.259938)

-------------
DIPOLE MOMENT
-------------
                                X             Y             Z
Electronic contribution:      0.00002      77.58441     -93.01954
Nuclear contribution   :      0.00000     176.21574     233.71711
                        -----------------------------------------
Total Dipole Moment    :      0.00002     253.80015     140.69756
                        -----------------------------------------
Magnitude (a.u.)       :    290.19015
Magnitude (Debye)      :    737.60474



--------------------
Rotational spectrum 
--------------------
 
Rotational constants in cm-1:     0.000327     0.000307     0.000298 
Rotational constants in MHz :     9.808150     9.216994     8.919341 

 Dipole components along the rotational axes: 
x,y,z [a.u.] :  -252.477178     0.000021   143.058015 
x,y,z [Debye]:  -641.745987     0.000052   363.624577 

 

Timings for individual modules:

Sum of individual times         ...     6712.605 sec (= 111.877 min)
GTO integral calculation        ...      227.203 sec (=   3.787 min)   3.4 %
SCF iterations                  ...     5479.715 sec (=  91.329 min)  81.6 %
CIS module                      ...     1005.687 sec (=  16.761 min)  15.0 %
                             ****ORCA TERMINATED NORMALLY****
TOTAL RUN TIME: 0 days 1 hours 52 minutes 46 seconds 939 msec
